# vtk DataFile Version 3.0
Frame: 52, Time: 0.884
ASCII
DATASET UNSTRUCTURED_GRID
POINTS 64 double
0.0795701 0.0502778 0 
0.0847965 0.0746272 0 
0.103985 0.0465384 0 
0.108625 0.0708254 0 
0.0861512 0.0997288 0 
0.0904395 0.124433 0 
0.111762 0.0956588 0 
0.116234 0.120106 0 
0.0929319 0.148707 0 
0.0962731 0.174 0 
0.120485 0.144452 0 
0.122301 0.168557 0 
0.103505 0.198258 0 
0.108092 0.222183 0 
0.128584 0.192586 0 
0.133042 0.216805 0 
0.130113 0.0456 0 
0.13281 0.0696529 0 
0.154467 0.0431166 0 
0.156882 0.0658762 0 
0.135417 0.0944225 0 
0.139004 0.11817 0 
0.161067 0.0890699 0 
0.164291 0.112201 0 
0.144045 0.142509 0 
0.146214 0.166721 0 
0.169559 0.136409 0 
0.172828 0.160659 0 
0.15257 0.190855 0 
0.158619 0.216452 0 
0.178089 0.185723 0 
0.184257 0.210311 0 
0.179537 0.0400201 0 
0.179912 0.0625362 0 
0.209474 0.0391813 0 
0.206557 0.0609804 0 
0.185282 0.0854197 0 
0.188748 0.108595 0 
0.21224 0.0830039 0 
0.214368 0.105715 0 
0.194354 0.131857 0 
0.198541 0.155522 0 
0.219451 0.127992 0 
0.224119 0.151244 0 
0.202643 0.180951 0 
0.210114 0.204595 0 
0.227211 0.175113 0 
0.234593 0.198254 0 
0.236146 0.0366352 0 
0.231466 0.0587407 0 
0.263057 0.0348994 0 
0.256865 0.0553236 0 
0.237849 0.0800964 0 
0.240472 0.102379 0 
0.263732 0.0742843 0 
0.266095 0.0962013 0 
0.245643 0.123401 0 
0.252673 0.145006 0 
0.272054 0.117833 0 
0.281075 0.139203 0 
0.254827 0.167944 0 
0.260486 0.189463 0 
0.282533 0.16205 0 
0.285555 0.183748 0 
CELLS 64 128
1 0
1 1
1 2
1 3
1 4
1 5
1 6
1 7
1 8
1 9
1 10
1 11
1 12
1 13
1 14
1 15
1 16
1 17
1 18
1 19
1 20
1 21
1 22
1 23
1 24
1 25
1 26
1 27
1 28
1 29
1 30
1 31
1 32
1 33
1 34
1 35
1 36
1 37
1 38
1 39
1 40
1 41
1 42
1 43
1 44
1 45
1 46
1 47
1 48
1 49
1 50
1 51
1 52
1 53
1 54
1 55
1 56
1 57
1 58
1 59
1 60
1 61
1 62
1 63
CELL_TYPES 64
1
1
1
1
1
1
1
1
1
1
1
1
1
1
1
1
1
1
1
1
1
1
1
1
1
1
1
1
1
1
1
1
1
1
1
1
1
1
1
1
1
1
1
1
1
1
1
1
1
1
1
1
1
1
1
1
1
1
1
1
1
1
1
1
POINT_DATA 64
VECTORS displacement double
-0.33293 -0.362222 0 
-0.327703 -0.362873 0 
-0.333515 -0.365962 0 
-0.328875 -0.366675 0 
-0.326349 -0.362771 0 
-0.322061 -0.363067 0 
-0.325738 -0.366841 0 
-0.321266 -0.367394 0 
-0.319568 -0.363793 0 
-0.316227 -0.3635 0 
-0.317015 -0.368048 0 
-0.315199 -0.368943 0 
-0.308995 -0.364242 0 
-0.304408 -0.365317 0 
-0.308916 -0.369914 0 
-0.304458 -0.370695 0 
-0.332387 -0.3669 0 
-0.32969 -0.367847 0 
-0.333033 -0.369383 0 
-0.330618 -0.371624 0 
-0.327083 -0.368078 0 
-0.323496 -0.36933 0 
-0.326433 -0.37343 0 
-0.323209 -0.375299 0 
-0.318455 -0.369991 0 
-0.316286 -0.370779 0 
-0.317941 -0.376091 0 
-0.314672 -0.376841 0 
-0.30993 -0.371645 0 
-0.303881 -0.371048 0 
-0.309411 -0.376777 0 
-0.303243 -0.377189 0 
-0.332963 -0.37248 0 
-0.332588 -0.374964 0 
-0.328026 -0.373319 0 
-0.330943 -0.37652 0 
-0.327218 -0.37708 0 
-0.323752 -0.378905 0 
-0.32526 -0.379496 0 
-0.323132 -0.381785 0 
-0.318146 -0.380643 0 
-0.313959 -0.381978 0 
-0.318049 -0.384508 0 
-0.313381 -0.386256 0 
-0.309857 -0.381549 0 
-0.302386 -0.382905 0 
-0.310289 -0.387387 0 
-0.302907 -0.389246 0 
-0.326354 -0.375865 0 
-0.331034 -0.378759 0 
-0.324443 -0.377601 0 
-0.330635 -0.382176 0 
-0.324651 -0.382404 0 
-0.322028 -0.385121 0 
-0.323768 -0.388216 0 
-0.321405 -0.391299 0 
-0.316857 -0.389099 0 
-0.309827 -0.392494 0 
-0.315446 -0.394667 0 
-0.306425 -0.398297 0 
-0.307673 -0.394556 0 
-0.302014 -0.398037 0 
-0.304967 -0.40045 0 
-0.301945 -0.403752 0 
VECTORS velocity double
-0.242681 -1.34544 0 
-0.389149 -0.934498 0 
-0.140991 -0.519237 0 
-0.451013 -0.277878 0 
-0.817404 -1.24678 0 
-1.00387 -0.830669 0 
-0.440897 -0.685655 0 
-0.772432 -0.281017 0 
-0.743627 -0.952382 0 
-1.35852 -1.12103 0 
-0.941193 -0.500919 0 
-1.22815 -0.796931 0 
-1.43153 -0.70219 0 
-1.7846 -0.692969 0 
-1.57269 -0.395735 0 
-1.75694 -0.293496 0 
-0.0472642 -0.553243 0 
-0.426667 0.132516 0 
-0.149935 -0.0603794 0 
-0.456567 0.399342 0 
-0.529426 -0.15674 0 
-0.72442 0.0666993 0 
-0.499374 -0.181356 0 
-0.639063 -0.139809 0 
-0.968833 -0.0715349 0 
-0.895799 -0.319104 0 
-0.84413 0.0332336 0 
-0.755737 -0.0244796 0 
-1.14016 -0.161967 0 
-2.35448 0.018649 0 
-0.692423 0.172143 0 
-1.53096 -0.0739692 0 
0.213584 0.00791965 0 
-0.871215 0.234456 0 
-0.00191127 -0.0602155 0 
-0.585234 0.431761 0 
-0.882121 -0.249065 0 
-0.45733 -0.190695 0 
-0.538866 0.200431 0 
-0.465353 0.473377 0 
-0.876471 0.0132668 0 
-0.995777 0.291507 0 
-1.14047 0.585117 0 
-1.16686 0.86795 0 
-1.4432 0.220334 0 
-1.49993 0.64083 0 
-1.84211 0.983532 0 
-1.31254 0.858562 0 
-0.1847 -0.423998 0 
-0.466769 0.259606 0 
0.143456 0.348906 0 
-0.747526 0.707852 0 
-0.850543 0.00344194 0 
-0.697604 0.33941 0 
-0.676454 0.659002 0 
-0.87853 0.410101 0 
-1.12372 0.398381 0 
-0.984269 0.186425 0 
-1.26356 0.576545 0 
-1.38467 1.10287 0 
-1.4282 0.470888 0 
-0.0950127 0.114922 0 
-1.56247 0.783081 0 
-0.585807 0.61401 0 
SCALARS mass double 1
LOOKUP_TABLE default
0.625
0.625
0.625
0.625
0.625
0.625
0.625
0.625
0.625
0.625
0.625
0.625
0.625
0.625
0.625
0.625
0.625
0.625
0.625
0.625
0.625
0.625
0.625
0.625
0.625
0.625
0.625
0.625
0.625
0.625
0.625
0.625
0.625
0.625
0.625
0.625
0.625
0.625
0.625
0.625
0.625
0.625
0.625
0.625
0.625
0.625
0.625
0.625
0.625
0.625
0.625
0.625
0.625
0.625
0.625
0.625
0.625
0.625
0.625
0.625
0.625
0.625
0.625
0.625
SCALARS volume double 1
LOOKUP_TABLE default
0.000626377
0.000626771
0.000574456
0.000613666
0.000626004
0.00063886
0.000621829
0.000615089
0.000624598
0.000628827
0.00063455
0.000635926
0.000642233
0.00061716
0.000628169
0.000622753
0.000595727
0.000620647
0.000538701
0.000578132
0.000614825
0.000615267
0.000614191
0.000603708
0.000630562
0.000605402
0.000634612
0.000644362
0.000641901
0.000627904
0.000606625
0.000642574
0.000527856
0.000570276
0.000510916
0.000594452
0.000628416
0.000616085
0.000611168
0.000575486
0.00062143
0.00061433
0.000631298
0.000623164
0.000619875
0.000659845
0.000631545
0.000638606
0.000473347
0.00058338
0.00049541
0.00058592
0.00057132
0.000579349
0.000574726
0.000567656
0.000594975
0.000682596
0.000574034
0.000602472
0.000657148
0.000699361
0.000504869
0.000396209
VECTORS momentum double
-0.151676 -0.840901 0 
-0.243218 -0.584061 0 
-0.0881197 -0.324523 0 
-0.281883 -0.173674 0 
-0.510878 -0.779237 0 
-0.627421 -0.519168 0 
-0.275561 -0.428534 0 
-0.48277 -0.175635 0 
-0.464767 -0.595239 0 
-0.849074 -0.700641 0 
-0.588246 -0.313074 0 
-0.767593 -0.498082 0 
-0.894709 -0.438869 0 
-1.11537 -0.433106 0 
-0.982933 -0.247334 0 
-1.09809 -0.183435 0 
-0.0295401 -0.345777 0 
-0.266667 0.0828223 0 
-0.0937094 -0.0377371 0 
-0.285354 0.249589 0 
-0.330891 -0.0979627 0 
-0.452763 0.0416871 0 
-0.312109 -0.113348 0 
-0.399414 -0.0873809 0 
-0.605521 -0.0447093 0 
-0.559874 -0.19944 0 
-0.527581 0.020771 0 
-0.472336 -0.0152997 0 
-0.7126 -0.101229 0 
-1.47155 0.0116557 0 
-0.432765 0.10759 0 
-0.95685 -0.0462308 0 
0.13349 0.00494978 0 
-0.544509 0.146535 0 
-0.00119454 -0.0376347 0 
-0.365771 0.269851 0 
-0.551326 -0.155666 0 
-0.285831 -0.119184 0 
-0.336792 0.125269 0 
-0.290846 0.295861 0 
-0.547795 0.00829174 0 
-0.622361 0.182192 0 
-0.712794 0.365698 0 
-0.72929 0.542469 0 
-0.901997 0.137709 0 
-0.937454 0.400519 0 
-1.15132 0.614707 0 
-0.820336 0.536601 0 
-0.115438 -0.264999 0 
-0.29173 0.162254 0 
0.0896602 0.218066 0 
-0.467204 0.442407 0 
-0.53159 0.00215121 0 
-0.436003 0.212132 0 
-0.422784 0.411876 0 
-0.549081 0.256313 0 
-0.702328 0.248988 0 
-0.615168 0.116516 0 
-0.789726 0.360341 0 
-0.865422 0.689293 0 
-0.892623 0.294305 0 
-0.059383 0.0718265 0 
-0.976541 0.489426 0 
-0.366129 0.383757 0 
VECTORS body_force double
0 -9.81 0 
0 -9.81 0 
0 -9.81 0 
0 -9.81 0 
0 -9.81 0 
0 -9.81 0 
0 -9.81 0 
0 -9.81 0 
0 -9.81 0 
0 -9.81 0 
0 -9.81 0 
0 -9.81 0 
0 -9.81 0 
0 -9.81 0 
0 -9.81 0 
0 -9.81 0 
0 -9.81 0 
0 -9.81 0 
0 -9.81 0 
0 -9.81 0 
0 -9.81 0 
0 -9.81 0 
0 -9.81 0 
0 -9.81 0 
0 -9.81 0 
0 -9.81 0 
0 -9.81 0 
0 -9.81 0 
0 -9.81 0 
0 -9.81 0 
0 -9.81 0 
0 -9.81 0 
0 -9.81 0 
0 -9.81 0 
0 -9.81 0 
0 -9.81 0 
0 -9.81 0 
0 -9.81 0 
0 -9.81 0 
0 -9.81 0 
0 -9.81 0 
0 -9.81 0 
0 -9.81 0 
0 -9.81 0 
0 -9.81 0 
0 -9.81 0 
0 -9.81 0 
0 -9.81 0 
0 -9.81 0 
0 -9.81 0 
0 -9.81 0 
0 -9.81 0 
0 -9.81 0 
0 -9.81 0 
0 -9.81 0 
0 -9.81 0 
0 -9.81 0 
0 -9.81 0 
0 -9.81 0 
0 -9.81 0 
0 -9.81 0 
0 -9.81 0 
0 -9.81 0 
0 -9.81 0 
TENSORS cauchy_stress double
1760.72 309.114 0
309.114 -1337.53 0
0 0 0

-2028.3 -1403.67 0
-1403.67 2572.53 0
0 0 0

-5990.03 1213.81 0
1213.81 -10226.8 0
0 0 0

-3155.41 821.139 0
821.139 -363.933 0
0 0 0

-585.024 -642.243 0
-642.243 893.6 0
0 0 0

1685.8 1670.74 0
1670.74 2532.14 0
0 0 0

1197.76 -178.079 0
-178.079 -2175.82 0
0 0 0

-1013.7 1274 0
1274 -2060.15 0
0 0 0

66.0364 -2212.34 0
-2212.34 -189.787 0
0 0 0

-486.683 672.698 0
672.698 1660.72 0
0 0 0

4620.88 -1228.64 0
-1228.64 -1704.61 0
0 0 0

4705.35 927.21 0
927.21 -1372.57 0
0 0 0

2179.26 -1241.07 0
-1241.07 3051.27 0
0 0 0

-2927.13 -466.78 0
-466.78 499.659 0
0 0 0

-1067.44 363.491 0
363.491 2040.2 0
0 0 0

2132.45 1961.48 0
1961.48 -2825.22 0
0 0 0

1476.57 3434.25 0
3434.25 -10701.4 0
0 0 0

-1738.57 3732.35 0
3732.35 394.543 0
0 0 0

-5588.69 1659.47 0
1659.47 -22986.4 0
0 0 0

-6524.87 -118.159 0
-118.159 -8465.44 0
0 0 0

511.456 5499.23 0
5499.23 -3668.09 0
0 0 0

1829.22 2672.27 0
2672.27 -4847.5 0
0 0 0

1552.52 -1970.14 0
-1970.14 -4907.37 0
0 0 0

-1082.03 -1383.68 0
-1383.68 -5583.66 0
0 0 0

2485.72 2846.03 0
2846.03 -781.782 0
0 0 0

-65.3661 -261.589 0
-261.589 -6061.33 0
0 0 0

2261.95 3967.24 0
3967.24 673.051 0
0 0 0

5084.81 -2945.31 0
-2945.31 782.204 0
0 0 0

5474.65 3955.42 0
3955.42 -343.513 0
0 0 0

2519.55 419.955 0
419.955 -1627.96 0
0 0 0

-2974.51 2182.96 0
2182.96 -2764 0
0 0 0

6154.64 2856.73 0
2856.73 -821.818 0
0 0 0

-3957.19 3018.03 0
3018.03 -28528.9 0
0 0 0

-7086.22 3072.74 0
3072.74 -10535.2 0
0 0 0

-3173.75 -958.71 0
-958.71 -35585.1 0
0 0 0

627.804 -1553.07 0
-1553.07 -10264.6 0
0 0 0

7335.8 2678.18 0
2678.18 -6287.44 0
0 0 0

3276.58 1370.17 0
1370.17 -6039.56 0
0 0 0

4452.28 -336.96 0
-336.96 -8756.05 0
0 0 0

-1611.36 1748.66 0
1748.66 -14261 0
0 0 0

1170.55 2505.23 0
2505.23 -2272.18 0
0 0 0

1388.12 -4957.46 0
-4957.46 -4699.68 0
0 0 0

4089.56 2732.17 0
2732.17 -2161.33 0
0 0 0

7873.86 -3855.16 0
-3855.16 -8439.48 0
0 0 0

-1179.65 749.851 0
749.851 -403.912 0
0 0 0

9891.96 -1228.02 0
-1228.02 541.391 0
0 0 0

3439.64 -164.287 0
-164.287 -1436.24 0
0 0 0

4257.77 4477.24 0
4477.24 -116.198 0
0 0 0

-12007.7 192.054 0
192.054 -41439 0
0 0 0

-4841.84 -159.638 0
-159.638 -8410.78 0
0 0 0

-256.351 -686.883 0
-686.883 -44429.3 0
0 0 0

1306.67 -2970.62 0
-2970.62 -13723.7 0
0 0 0

-3969.19 -142.044 0
-142.044 -13300.3 0
0 0 0

-975.626 -2480.78 0
-2480.78 -13610.3 0
0 0 0

-2101.23 -2768.76 0
-2768.76 -14025.3 0
0 0 0

-4848.72 -5535.53 0
-5535.53 -13658.3 0
0 0 0

2897.66 -798.251 0
-798.251 -12365.3 0
0 0 0

16888.6 -6358.5 0
-6358.5 63.7106 0
0 0 0

-2245.53 490.335 0
490.335 -14112.8 0
0 0 0

1945.48 -921.364 0
-921.364 -9005.18 0
0 0 0

13286 -9138.59 0
-9138.59 -3640.34 0
0 0 0

20452.3 -1694.55 0
-1694.55 1166.12 0
0 0 0

-17903.3 -6242.29 0
-6242.29 -23145.1 0
0 0 0

-58747.8 2810.83 0
2810.83 -28907.9 0
0 0 0

TENSORS velocity_gradient double
0.304868 -6.42635 0
11.6755 -6.88785 0
0 0 0

0.585127 -7.09946 0
11.4429 0.306155 0
0 0 0

-0.0845307 -7.11436 0
10.8923 -8.53411 0
0 0 0

0.0602636 -6.49517 0
11.2581 -0.592647 0
0 0 0

0.927694 -6.49515 0
10.3615 -0.321583 0
0 0 0

0.00268063 -6.21297 0
8.89484 -1.07789 0
0 0 0

0.748925 -6.45575 0
10.4604 -0.877623 0
0 0 0

0.762012 -6.72978 0
10.3213 -1.59287 0
0 0 0

-1.12206 -8.02197 0
7.58987 -0.692708 0
0 0 0

-1.61307 -10.1237 0
8.13751 -0.0656056 0
0 0 0

0.600303 -7.0917 0
10.3556 -1.45607 0
0 0 0

0.701408 -10.2236 0
10.2314 -0.238535 0
0 0 0

0.0876993 -8.55365 0
9.79019 0.63393 0
0 0 0

-1.55083 -6.67127 0
10.0723 1.80069 0
0 0 0

0.884271 -10.1738 0
10.0578 -0.285748 0
0 0 0

-0.936664 -9.39686 0
10.0562 1.87192 0
0 0 0

-0.154446 -8.66959 0
10.6981 -4.53978 0
0 0 0

0.0175403 -5.78121 0
11.3071 -1.41162 0
0 0 0

-1.44284 -10.2483 0
3.3092 -0.369721 0
0 0 0

-1.29119 -5.34495 0
3.35849 -1.68033 0
0 0 0

0.732189 -5.78672 0
10.4844 -1.50898 0
0 0 0

0.777239 -6.88898 0
10.3177 -1.55582 0
0 0 0

-1.47764 -5.37961 0
4.30907 -1.50361 0
0 0 0

-1.54905 -6.94137 0
6.06583 0.0652038 0
0 0 0

0.406009 -6.92051 0
10.2598 -1.4848 0
0 0 0

0.443462 -9.91388 0
10.2886 -0.368053 0
0 0 0

-1.51759 -6.93428 0
8.65147 0.647821 0
0 0 0

-0.661309 -8.13433 0
10.2862 -0.0247605 0
0 0 0

1.57766 -9.62866 0
10.6663 -0.335924 0
0 0 0

2.37635 -11.1188 0
8.94469 0.674466 0
0 0 0

1.31376 -7.70329 0
10.7112 0.0679888 0
0 0 0

2.40444 -11.231 0
9.72041 -2.42438 0
0 0 0

-1.85058 -8.63748 0
2.16433 1.12943 0
0 0 0

-1.26373 -5.53 0
3.21845 -0.73684 0
0 0 0

-0.513893 -7.71343 0
2.37823 2.81801 0
0 0 0

-1.69315 -6.11847 0
3.59903 0.427486 0
0 0 0

-1.44747 -5.57421 0
4.15525 -0.511456 0
0 0 0

-1.55393 -6.9095 0
5.66503 2.68395 0
0 0 0

-3.04286 -6.47672 0
4.72555 0.726499 0
0 0 0

-4.06721 -6.86312 0
5.48085 3.37838 0
0 0 0

-1.82532 -6.90212 0
7.77432 3.20941 0
0 0 0

-1.96221 -5.89648 0
7.64753 0.644564 0
0 0 0

-4.06611 -6.87307 0
5.11006 3.44711 0
0 0 0

-3.40594 -3.84139 0
4.80561 1.88391 0
0 0 0

1.37365 -5.25759 0
6.17922 0.465107 0
0 0 0

3.73845 -12.048 0
5.96303 -2.28353 0
0 0 0

0.406502 -0.95547 0
5.03602 0.79366 0
0 0 0

3.80832 -5.65064 0
5.5453 0.599926 0
0 0 0

-0.391799 -8.96647 0
2.22009 4.44094 0
0 0 0

-1.55039 -7.64912 0
3.47988 1.70503 0
0 0 0

-0.320269 -10.0288 0
6.11522 7.6228 0
0 0 0

-0.868038 -8.95844 0
8.24391 2.47114 0
0 0 0

-2.85731 -8.05209 0
4.57068 2.04136 0
0 0 0

-3.96261 -7.31446 0
5.42299 2.7726 0
0 0 0

-1.14237 -8.9579 0
6.82083 1.41917 0
0 0 0

-1.42528 -8.63013 0
5.0514 1.44053 0
0 0 0

-3.43144 -6.83355 0
4.99191 2.98414 0
0 0 0

-1.6391 -6.20163 0
4.17467 2.74706 0
0 0 0

-1.36503 -6.65098 0
4.39714 2.61714 0
0 0 0

-1.19065 -6.5758 0
4.12052 2.49788 0
0 0 0

1.9287 4.01084 0
2.69414 0.61036 0
0 0 0

5.81497 4.99649 0
1.00091 0.199025 0
0 0 0

0.928926 8.93796 0
3.10107 -1.49513 0
0 0 0

4.7925 9.43828 0
1.4404 -1.71018 0
0 0 0

SCALARS active double 1
LOOKUP_TABLE default
1
1
1
1
1
1
1
1
1
1
1
1
1
1
1
1
1
1
1
1
1
1
1
1
1
1
1
1
1
1
1
1
1
1
1
1
1
1
1
1
1
1
1
1
1
1
1
1
1
1
1
1
1
1
1
1
1
1
1
1
1
1
1
1
SCALARS extent double 1
LOOKUP_TABLE default
0.0125
0.0125
0.0125
0.0125
0.0125
0.0125
0.0125
0.0125
0.0125
0.0125
0.0125
0.0125
0.0125
0.0125
0.0125
0.0125
0.0125
0.0125
0.0125
0.0125
0.0125
0.0125
0.0125
0.0125
0.0125
0.0125
0.0125
0.0125
0.0125
0.0125
0.0125
0.0125
0.0125
0.0125
0.0125
0.0125
0.0125
0.0125
0.0125
0.0125
0.0125
0.0125
0.0125
0.0125
0.0125
0.0125
0.0125
0.0125
0.0125
0.0125
0.0125
0.0125
0.0125
0.0125
0.0125
0.0125
0.0125
0.0125
0.0125
0.0125
0.0125
0.0125
0.0125
0.0125
SCALARS pressure double 1
LOOKUP_TABLE default
-211.595
-272.115
8108.4
1759.67
-154.288
-2108.97
489.028
1536.92
61.8752
-587.019
-1458.14
-1666.39
-2615.27
1213.73
-486.381
346.387
4612.39
672.011
14287.6
7495.16
1578.32
1509.14
1677.43
3332.84
-851.967
3063.35
-1467.5
-2933.51
-2565.57
-445.792
2869.26
-2666.41
16243.1
8810.69
19379.4
4818.38
-524.184
1381.49
2151.88
7936.18
550.815
1655.78
-964.114
282.81
791.78
-5216.67
-1001.7
-2070.79
26723.4
6626.31
22342.8
6208.53
8634.76
7292.96
8063.29
9253.53
4733.84
-8476.17
8179.15
3529.85
-4822.84
-10809.2
20524.2
43827.8
SCALARS density double 1
LOOKUP_TABLE default
997.802
997.174
1087.99
1018.47
998.397
978.305
1005.1
1016.11
1000.64
993.914
984.95
982.819
973.168
1012.7
994.954
1003.61
1049.14
1007.01
1160.2
1081.07
1016.55
1015.82
1017.6
1035.27
991.179
1032.37
984.854
969.952
973.671
995.374
1030.29
972.65
1184.03
1095.96
1223.29
1051.39
994.563
1014.47
1022.63
1086.04
1005.74
1017.37
990.023
1002.95
1008.27
947.192
989.636
978.694
1320.38
1071.34
1261.58
1066.7
1093.96
1078.8
1087.47
1101.02
1050.46
915.622
1088.79
1037.39
951.08
893.673
1237.94
1577.45
