# vtk DataFile Version 3.0
Frame: 43, Time: 0.734
ASCII
DATASET UNSTRUCTURED_GRID
POINTS 64 double
0.0542076 0.101271 0 
0.056561 0.125572 0 
0.0797201 0.100693 0 
0.0812887 0.124812 0 
0.0560143 0.150359 0 
0.0579697 0.174982 0 
0.082254 0.149032 0 
0.0840766 0.1738 0 
0.056319 0.198715 0 
0.0553514 0.224266 0 
0.0839089 0.19854 0 
0.0823104 0.223076 0 
0.0582348 0.248072 0 
0.0565343 0.270782 0 
0.0850137 0.247654 0 
0.0836448 0.271396 0 
0.105499 0.101052 0 
0.105409 0.125375 0 
0.129927 0.0983869 0 
0.129971 0.122897 0 
0.106403 0.149939 0 
0.106799 0.174303 0 
0.13272 0.147504 0 
0.132392 0.171333 0 
0.107328 0.199359 0 
0.106456 0.223826 0 
0.13355 0.196422 0 
0.133855 0.220433 0 
0.109152 0.248316 0 
0.109979 0.274416 0 
0.135974 0.245433 0 
0.136422 0.270441 0 
0.154035 0.0947989 0 
0.15315 0.120558 0 
0.182095 0.0945705 0 
0.17852 0.119952 0 
0.157033 0.145318 0 
0.156821 0.169365 0 
0.18268 0.144209 0 
0.181864 0.168389 0 
0.158868 0.194058 0 
0.160162 0.218118 0 
0.183716 0.193066 0 
0.185243 0.216855 0 
0.161621 0.244728 0 
0.162727 0.26931 0 
0.186454 0.242517 0 
0.188678 0.267993 0 
0.208283 0.0923552 0 
0.203071 0.118912 0 
0.232684 0.0921486 0 
0.227698 0.117823 0 
0.207734 0.142548 0 
0.20726 0.166459 0 
0.233519 0.140461 0 
0.233169 0.165043 0 
0.208559 0.190745 0 
0.21094 0.215188 0 
0.233964 0.19078 0 
0.236963 0.215625 0 
0.211053 0.240933 0 
0.213218 0.265334 0 
0.236358 0.241367 0 
0.239404 0.265525 0 
CELLS 64 128
1 0
1 1
1 2
1 3
1 4
1 5
1 6
1 7
1 8
1 9
1 10
1 11
1 12
1 13
1 14
1 15
1 16
1 17
1 18
1 19
1 20
1 21
1 22
1 23
1 24
1 25
1 26
1 27
1 28
1 29
1 30
1 31
1 32
1 33
1 34
1 35
1 36
1 37
1 38
1 39
1 40
1 41
1 42
1 43
1 44
1 45
1 46
1 47
1 48
1 49
1 50
1 51
1 52
1 53
1 54
1 55
1 56
1 57
1 58
1 59
1 60
1 61
1 62
1 63
CELL_TYPES 64
1
1
1
1
1
1
1
1
1
1
1
1
1
1
1
1
1
1
1
1
1
1
1
1
1
1
1
1
1
1
1
1
1
1
1
1
1
1
1
1
1
1
1
1
1
1
1
1
1
1
1
1
1
1
1
1
1
1
1
1
1
1
1
1
POINT_DATA 64
VECTORS displacement double
-0.358292 -0.311229 0 
-0.355939 -0.311928 0 
-0.35778 -0.311807 0 
-0.356211 -0.312688 0 
-0.356486 -0.312141 0 
-0.35453 -0.312518 0 
-0.355246 -0.313468 0 
-0.353423 -0.3137 0 
-0.356181 -0.313785 0 
-0.357149 -0.313234 0 
-0.353591 -0.31396 0 
-0.35519 -0.314424 0 
-0.354265 -0.314428 0 
-0.355966 -0.316718 0 
-0.352486 -0.314846 0 
-0.353855 -0.316104 0 
-0.357001 -0.311448 0 
-0.357091 -0.312125 0 
-0.357573 -0.314113 0 
-0.357529 -0.314603 0 
-0.356097 -0.312561 0 
-0.355701 -0.313197 0 
-0.35478 -0.314996 0 
-0.355108 -0.316167 0 
-0.355172 -0.313141 0 
-0.356044 -0.313674 0 
-0.35395 -0.316078 0 
-0.353645 -0.317067 0 
-0.353348 -0.314184 0 
-0.352521 -0.313084 0 
-0.351526 -0.317067 0 
-0.351078 -0.317059 0 
-0.358465 -0.317701 0 
-0.35935 -0.316942 0 
-0.355405 -0.317929 0 
-0.35898 -0.317548 0 
-0.355467 -0.317182 0 
-0.355679 -0.318135 0 
-0.35482 -0.318291 0 
-0.355636 -0.319111 0 
-0.353632 -0.318442 0 
-0.352338 -0.319382 0 
-0.353784 -0.319434 0 
-0.352257 -0.320645 0 
-0.350879 -0.317772 0 
-0.349773 -0.31819 0 
-0.351046 -0.319983 0 
-0.348822 -0.319507 0 
-0.354217 -0.320145 0 
-0.359429 -0.318588 0 
-0.354816 -0.320351 0 
-0.359802 -0.319677 0 
-0.354766 -0.319952 0 
-0.35524 -0.321041 0 
-0.353981 -0.322039 0 
-0.354331 -0.322457 0 
-0.353941 -0.321755 0 
-0.35156 -0.322312 0 
-0.353536 -0.32172 0 
-0.350537 -0.321875 0 
-0.351447 -0.321567 0 
-0.349282 -0.322166 0 
-0.351142 -0.321133 0 
-0.348096 -0.321975 0 
VECTORS velocity double
0.832385 0.157746 0 
1.18777 0.467966 0 
0.227122 0.251966 0 
0.530074 0.125065 0 
0.847228 0.29554 0 
0.721408 0.653456 0 
0.685105 -0.240984 0 
0.59083 0.444877 0 
0.980904 0.42475 0 
0.719949 0.374271 0 
0.777178 0.224949 0 
1.01895 -0.11044 0 
1.07802 0.78986 0 
1.16579 0.728452 0 
1.10722 0.425047 0 
1.48201 0.168028 0 
0.418327 0.119188 0 
0.564669 0.513007 0 
0.250254 0.147174 0 
0.911052 0.567452 0 
0.243747 0.27343 0 
0.308864 0.738254 0 
0.445652 0.305952 0 
0.330117 0.640548 0 
0.537893 0.402146 0 
0.967459 0.0203568 0 
0.62418 0.485548 0 
0.945081 0.0572166 0 
0.883041 0.488158 0 
0.972574 0.231725 0 
0.894217 0.546766 0 
1.06177 0.057111 0 
-0.0707972 0.0875014 0 
0.556717 -0.0309703 0 
-0.0984647 0.376328 0 
0.495111 0.285454 0 
0.199408 -0.229543 0 
0.411976 0.115107 0 
0.403603 -0.0712273 0 
0.498463 0.307496 0 
0.628514 -0.138233 0 
1.15547 -0.338361 0 
0.41632 0.0893446 0 
1.01009 -0.117384 0 
0.865861 -0.14436 0 
1.08373 -0.248151 0 
0.856565 0.20944 0 
1.1236 0.0624822 0 
-0.0572565 -0.0802862 0 
0.485473 0.228367 0 
0.0202324 -0.321538 0 
0.0577745 -0.321463 0 
0.173091 -0.1875 0 
0.523794 0.219098 0 
0.344009 -0.392009 0 
0.492771 -0.144493 0 
0.528633 0.056985 0 
0.918767 -0.538772 0 
0.590409 -0.102147 0 
0.832009 -0.337097 0 
0.687244 0.140293 0 
1.08174 -0.0641904 0 
0.838644 -0.16476 0 
1.06086 -0.180291 0 
SCALARS mass double 1
LOOKUP_TABLE default
0.625
0.625
0.625
0.625
0.625
0.625
0.625
0.625
0.625
0.625
0.625
0.625
0.625
0.625
0.625
0.625
0.625
0.625
0.625
0.625
0.625
0.625
0.625
0.625
0.625
0.625
0.625
0.625
0.625
0.625
0.625
0.625
0.625
0.625
0.625
0.625
0.625
0.625
0.625
0.625
0.625
0.625
0.625
0.625
0.625
0.625
0.625
0.625
0.625
0.625
0.625
0.625
0.625
0.625
0.625
0.625
0.625
0.625
0.625
0.625
0.625
0.625
0.625
0.625
SCALARS volume double 1
LOOKUP_TABLE default
0.000669917
0.000625907
0.000608473
0.000595753
0.000646961
0.000625904
0.00063118
0.000608669
0.000615403
0.000649885
0.000627268
0.000653073
0.000604565
0.000641708
0.000620694
0.000638298
0.000652429
0.000619091
0.00062643
0.000621275
0.00063574
0.000620876
0.000635022
0.000619217
0.000635965
0.000606265
0.000631216
0.000647228
0.000651439
0.000634008
0.000623187
0.000643773
0.000627603
0.000602952
0.000643467
0.000630675
0.00063002
0.000616187
0.000626811
0.000602886
0.000631592
0.000607565
0.000661516
0.00059384
0.000647446
0.000640177
0.000654137
0.000629279
0.000637744
0.000632997
0.000626405
0.000634576
0.000602746
0.000615503
0.00062105
0.000626369
0.000611014
0.000625982
0.000638141
0.000620716
0.000634414
0.000631378
0.000633347
0.0006208
VECTORS momentum double
0.52024 0.0985914 0 
0.742357 0.292479 0 
0.141951 0.157479 0 
0.331296 0.0781656 0 
0.529518 0.184713 0 
0.45088 0.40841 0 
0.42819 -0.150615 0 
0.369269 0.278048 0 
0.613065 0.265469 0 
0.449968 0.233919 0 
0.485736 0.140593 0 
0.636843 -0.0690248 0 
0.673762 0.493662 0 
0.728617 0.455283 0 
0.692013 0.265655 0 
0.926253 0.105017 0 
0.261454 0.0744927 0 
0.352918 0.32063 0 
0.156408 0.0919839 0 
0.569407 0.354658 0 
0.152342 0.170893 0 
0.19304 0.461409 0 
0.278533 0.19122 0 
0.206323 0.400342 0 
0.336183 0.251341 0 
0.604662 0.012723 0 
0.390112 0.303467 0 
0.590675 0.0357604 0 
0.551901 0.305099 0 
0.607859 0.144828 0 
0.558885 0.341729 0 
0.663606 0.0356944 0 
-0.0442483 0.0546884 0 
0.347948 -0.0193564 0 
-0.0615404 0.235205 0 
0.309445 0.178409 0 
0.12463 -0.143464 0 
0.257485 0.0719416 0 
0.252252 -0.0445171 0 
0.311539 0.192185 0 
0.392821 -0.0863954 0 
0.722167 -0.211476 0 
0.2602 0.0558404 0 
0.631305 -0.073365 0 
0.541163 -0.0902252 0 
0.677332 -0.155095 0 
0.535353 0.1309 0 
0.70225 0.0390514 0 
-0.0357853 -0.0501789 0 
0.303421 0.142729 0 
0.0126452 -0.200961 0 
0.0361091 -0.200915 0 
0.108182 -0.117187 0 
0.327371 0.136936 0 
0.215006 -0.245005 0 
0.307982 -0.0903083 0 
0.330396 0.0356156 0 
0.57423 -0.336732 0 
0.369005 -0.0638419 0 
0.520006 -0.210686 0 
0.429528 0.0876832 0 
0.676085 -0.040119 0 
0.524152 -0.102975 0 
0.663035 -0.112682 0 
VECTORS body_force double
0 -9.81 0 
0 -9.81 0 
0 -9.81 0 
0 -9.81 0 
0 -9.81 0 
0 -9.81 0 
0 -9.81 0 
0 -9.81 0 
0 -9.81 0 
0 -9.81 0 
0 -9.81 0 
0 -9.81 0 
0 -9.81 0 
0 -9.81 0 
0 -9.81 0 
0 -9.81 0 
0 -9.81 0 
0 -9.81 0 
0 -9.81 0 
0 -9.81 0 
0 -9.81 0 
0 -9.81 0 
0 -9.81 0 
0 -9.81 0 
0 -9.81 0 
0 -9.81 0 
0 -9.81 0 
0 -9.81 0 
0 -9.81 0 
0 -9.81 0 
0 -9.81 0 
0 -9.81 0 
0 -9.81 0 
0 -9.81 0 
0 -9.81 0 
0 -9.81 0 
0 -9.81 0 
0 -9.81 0 
0 -9.81 0 
0 -9.81 0 
0 -9.81 0 
0 -9.81 0 
0 -9.81 0 
0 -9.81 0 
0 -9.81 0 
0 -9.81 0 
0 -9.81 0 
0 -9.81 0 
0 -9.81 0 
0 -9.81 0 
0 -9.81 0 
0 -9.81 0 
0 -9.81 0 
0 -9.81 0 
0 -9.81 0 
0 -9.81 0 
0 -9.81 0 
0 -9.81 0 
0 -9.81 0 
0 -9.81 0 
0 -9.81 0 
0 -9.81 0 
0 -9.81 0 
0 -9.81 0 
TENSORS cauchy_stress double
10342.9 1650.13 0
1650.13 3003.78 0
0 0 0

132.176 -250.27 0
-250.27 146.57 0
0 0 0

-1795.44 759.359 0
759.359 -3358.17 0
0 0 0

-3941.36 -63.3457 0
-63.3457 -5275.24 0
0 0 0

3240.14 1865.9 0
1865.9 3401.14 0
0 0 0

618.745 2090.6 0
2090.6 -340.73 0
0 0 0

3008.13 963.445 0
963.445 -1115.96 0
0 0 0

-2493.9 -51.4239 0
-51.4239 -2597.74 0
0 0 0

722.039 -1888.89 0
-1888.89 -3697.94 0
0 0 0

3454.42 546.68 0
546.68 4054.13 0
0 0 0

2167.47 -1930.3 0
-1930.3 -1471.03 0
0 0 0

6681.86 2331.57 0
2331.57 1767.7 0
0 0 0

2989.48 -2912.96 0
-2912.96 -9382.32 0
0 0 0

3031.44 -533.279 0
-533.279 2042.1 0
0 0 0

-589.396 -2495.48 0
-2495.48 -740.168 0
0 0 0

7357.67 -680.086 0
-680.086 -3308.9 0
0 0 0

6347.26 1145.09 0
1145.09 1912.49 0
0 0 0

-1687.12 2406.43 0
2406.43 -139.775 0
0 0 0

1691.84 465.725 0
465.725 -1252.19 0
0 0 0

-1001.66 453.011 0
453.011 -148.02 0
0 0 0

4064.47 5487.95 0
5487.95 -787.925 0
0 0 0

794.619 1746.85 0
1746.85 -2067.85 0
0 0 0

4549.65 -362.683 0
-362.683 -1490.36 0
0 0 0

81.9825 -3869.94 0
-3869.94 -1869.66 0
0 0 0

2398.95 1244.64 0
1244.64 945.649 0
0 0 0

405.426 83.6283 0
83.6283 -6258.23 0
0 0 0

845.597 647.213 0
647.213 1057.57 0
0 0 0

7423.25 -2975.09 0
-2975.09 -702.68 0
0 0 0

6326.15 -32.6792 0
-32.6792 1641.68 0
0 0 0

5057.46 -2634.11 0
-2634.11 -2305.69 0
0 0 0

1287.37 -2232.69 0
-2232.69 -1846.06 0
0 0 0

4470.11 -224.07 0
-224.07 1221.23 0
0 0 0

663.218 1607.85 0
1607.85 136.083 0
0 0 0

-6435.35 2372.81 0
2372.81 -471.253 0
0 0 0

6767.43 -771.89 0
-771.89 -1167.54 0
0 0 0

928.898 502.431 0
502.431 809.4 0
0 0 0

2767.18 1372.55 0
1372.55 -1228.89 0
0 0 0

515.545 -2473.42 0
-2473.42 -3246.66 0
0 0 0

2563.61 48.5997 0
48.5997 -2007.32 0
0 0 0

-1938.03 -470.303 0
-470.303 -4989.42 0
0 0 0

775.023 2485.31 0
2485.31 1242.6 0
0 0 0

-293.649 -1554.41 0
-1554.41 -5147.29 0
0 0 0

4448.96 2542.38 0
2542.38 6470.82 0
0 0 0

1577.81 -3700.07 0
-3700.07 -11412.7 0
0 0 0

699.081 1424.46 0
1424.46 6086.28 0
0 0 0

9310.28 -1557.34 0
-1557.34 -4696.13 0
0 0 0

1646.24 2174.46 0
2174.46 7116.29 0
0 0 0

-393.077 -8.04658 0
-8.04658 1705.13 0
0 0 0

2488.74 -391.572 0
-391.572 1393.03 0
0 0 0

-1228.39 431.032 0
431.032 3673.54 0
0 0 0

1342.43 -267.604 0
-267.604 -910.572 0
0 0 0

761.156 2886.63 0
2886.63 2163.07 0
0 0 0

-2099.13 -180.758 0
-180.758 -4873.04 0
0 0 0

953.943 -2634 0
-2634 -3898.63 0
0 0 0

37.5054 3805.85 0
3805.85 -1256.81 0
0 0 0

1054.77 412.162 0
412.162 -634.058 0
0 0 0

-3153.15 1307.96 0
1307.96 -1199.22 0
0 0 0

2476.43 -1053.85 0
-1053.85 -2174.52 0
0 0 0

605.714 1522.19 0
1522.19 3395.85 0
0 0 0

459.906 -195.488 0
-195.488 -1782.69 0
0 0 0

687.449 1772.45 0
1772.45 2187.63 0
0 0 0

2741.75 -565.435 0
-565.435 -789.122 0
0 0 0

495.884 -532.077 0
-532.077 2055.45 0
0 0 0

-568.816 443.477 0
443.477 -727.921 0
0 0 0

TENSORS velocity_gradient double
-1.35632 -0.202835 0
-1.25411 -0.187196 0
0 0 0

-5.50317 1.08491 0
-0.00444639 1.44976 0
0 0 0

-6.16767 0.0868671 0
-0.43367 0.98542 0
0 0 0

-6.28044 0.777915 0
0.0941705 1.75661 0
0 0 0

-4.51318 0.982161 0
0.0909191 1.28888 0
0 0 0

-5.02324 0.980369 0
-0.334052 1.11648 0
0 0 0

-6.3962 1.47324 0
0.281972 1.21987 0
0 0 0

-5.09845 2.66305 0
-0.29903 0.332975 0
0 0 0

-2.30277 2.38448 0
-1.09457 1.5457 0
0 0 0

0.646202 4.88669 0
-2.27189 2.25521 0
0 0 0

-3.57662 3.82414 0
-1.12164 0.361361 0
0 0 0

-2.5944 5.89626 0
-2.63061 0.517363 0
0 0 0

-1.84955 5.00405 0
-4.283 2.01717 0
0 0 0

-0.468574 4.92598 0
-5.01866 1.75754 0
0 0 0

-1.8497 5.42475 0
-4.26511 0.342851 0
0 0 0

-2.35306 4.05345 0
-5.5377 0.41562 0
0 0 0

-3.66462 0.684412 0
-1.31343 1.80197 0
0 0 0

-2.95291 0.723892 0
-2.19081 1.72343 0
0 0 0

-3.5064 1.72218 0
-1.32231 1.17835 0
0 0 0

-2.64077 1.49629 0
-2.34784 0.624473 0
0 0 0

-1.86501 2.25376 0
-3.40065 0.783636 0
0 0 0

-0.778256 3.98136 0
-3.98846 -0.262804 0
0 0 0

-1.82475 2.56505 0
-3.43066 0.164243 0
0 0 0

-0.885561 5.03188 0
-3.95083 -0.677739 0
0 0 0

0.0811431 5.01022 0
-4.36668 -0.477103 0
0 0 0

-0.429167 6.38623 0
-4.3878 -0.734553 0
0 0 0

0.0600954 5.19756 0
-4.34024 -0.720217 0
0 0 0

-0.230831 5.69027 0
-4.46948 -0.824539 0
0 0 0

-0.937766 5.29383 0
-4.5632 -0.696634 0
0 0 0

-1.43664 3.29425 0
-4.86742 -0.583092 0
0 0 0

-0.877165 5.29087 0
-4.54128 -0.8422 0
0 0 0

-1.36809 2.82266 0
-4.81605 -0.936527 0
0 0 0

-3.21935 3.04808 0
-2.1527 0.943255 0
0 0 0

-2.07177 2.31688 0
-2.51199 -0.275043 0
0 0 0

-3.12065 4.73562 0
-2.3865 0.61938 0
0 0 0

-1.85273 3.47827 0
-2.61009 -0.540961 0
0 0 0

-0.703675 2.85081 0
-2.81213 -0.448648 0
0 0 0

-0.40721 5.78882 0
-3.0734 -1.0456 0
0 0 0

-0.728949 3.73669 0
-2.80195 -0.597462 0
0 0 0

-0.409072 5.84062 0
-3.06282 -1.33997 0
0 0 0

-0.356597 5.78272 0
-3.35941 -1.06027 0
0 0 0

-0.386862 5.22578 0
-2.92322 -0.601903 0
0 0 0

-0.357982 5.84415 0
-3.35317 -1.36004 0
0 0 0

-0.384013 5.1657 0
-2.95694 0.109074 0
0 0 0

-0.449166 5.02478 0
-2.17201 -0.589543 0
0 0 0

-0.449763 2.57087 0
-1.60225 -0.878539 0
0 0 0

-0.445448 5.16311 0
-2.22994 0.139655 0
0 0 0

-0.450662 2.58915 0
-1.62977 -0.318513 0
0 0 0

-0.923039 5.66711 0
-6.71998 0.430515 0
0 0 0

-1.14201 4.4831 0
-5.10571 -0.527313 0
0 0 0

-0.9218 4.95464 0
-6.71974 0.289983 0
0 0 0

-0.871514 4.91343 0
-6.08548 0.326233 0
0 0 0

-0.49551 4.60645 0
-5.15536 -0.433148 0
0 0 0

-0.166628 5.96763 0
-4.16167 -1.26599 0
0 0 0

-0.525342 5.00069 0
-5.22915 0.542086 0
0 0 0

-0.183697 6.30594 0
-4.21817 -0.146102 0
0 0 0

0.150787 5.98268 0
-3.11095 -1.21616 0
0 0 0

0.0953263 5.01167 0
-2.76656 0.514148 0
0 0 0

0.152271 6.31419 0
-3.10603 -0.118779 0
0 0 0

0.0894907 4.71306 0
-2.7683 0.42517 0
0 0 0

-0.199998 5.01184 0
-2.85456 0.514199 0
0 0 0

-0.301224 2.59942 0
-2.40647 0.327745 0
0 0 0

-0.205798 4.72139 0
-2.85629 0.427654 0
0 0 0

-0.30119 2.60286 0
-2.39857 1.14214 0
0 0 0

SCALARS active double 1
LOOKUP_TABLE default
1
1
1
1
1
1
1
1
1
1
1
1
1
1
1
1
1
1
1
1
1
1
1
1
1
1
1
1
1
1
1
1
1
1
1
1
1
1
1
1
1
1
1
1
1
1
1
1
1
1
1
1
1
1
1
1
1
1
1
1
1
1
1
1
SCALARS extent double 1
LOOKUP_TABLE default
0.0125
0.0125
0.0125
0.0125
0.0125
0.0125
0.0125
0.0125
0.0125
0.0125
0.0125
0.0125
0.0125
0.0125
0.0125
0.0125
0.0125
0.0125
0.0125
0.0125
0.0125
0.0125
0.0125
0.0125
0.0125
0.0125
0.0125
0.0125
0.0125
0.0125
0.0125
0.0125
0.0125
0.0125
0.0125
0.0125
0.0125
0.0125
0.0125
0.0125
0.0125
0.0125
0.0125
0.0125
0.0125
0.0125
0.0125
0.0125
0.0125
0.0125
0.0125
0.0125
0.0125
0.0125
0.0125
0.0125
0.0125
0.0125
0.0125
0.0125
0.0125
0.0125
0.0125
0.0125
SCALARS pressure double 1
LOOKUP_TABLE default
-6673.35
-139.373
2576.81
4608.3
-3320.64
-139.008
-946.088
2545.82
1487.95
-3754.27
-348.22
-4224.78
3196.42
-2536.77
664.782
-2024.39
-4129.87
913.45
-219.825
574.84
-1638.27
636.614
-1529.64
893.837
-1672.3
2926.4
-951.584
-3360.28
-3983.91
-1375.89
279.345
-2845.67
-399.65
3453.3
-2799.95
-869.149
-769.148
1365.56
-278.141
3463.73
-1008.81
2720.47
-5459.89
4917.45
-3392.68
-2307.07
-4381.26
-656.029
-1940.88
-1222.57
-215.927
-1462.11
3486.08
1472.34
609.654
-210.358
2176.18
-150.953
-2000.78
661.391
-1437.54
-976.313
-1275.67
648.368
SCALARS density double 1
LOOKUP_TABLE default
932.951
998.552
1027.16
1049.09
966.055
998.555
990.209
1026.83
1015.6
961.708
996.385
957.014
1033.8
973.963
1006.94
979.166
957.959
1009.55
997.716
1006
983.106
1006.64
984.218
1009.34
982.758
1030.9
990.152
965.657
959.414
985.793
1002.91
970.839
995.852
1036.57
971.3
991.002
992.033
1014.3
997.112
1036.68
989.563
1028.7
944.799
1052.47
965.331
976.292
955.457
993.201
980.017
987.366
997.757
984.909
1036.92
1015.43
1006.36
997.815
1022.89
998.431
979.407
1006.9
985.161
989.898
986.821
1006.77
