# vtk DataFile Version 3.0
Frame: 17, Time: 0.3
ASCII
DATASET UNSTRUCTURED_GRID
POINTS 64 double
0.511626 0.180118 0 
0.511661 0.201584 0 
0.537696 0.178803 0 
0.537635 0.200479 0 
0.511759 0.223285 0 
0.51191 0.245846 0 
0.537529 0.222614 0 
0.537472 0.245472 0 
0.512105 0.269342 0 
0.512265 0.293243 0 
0.537464 0.269114 0 
0.537466 0.293117 0 
0.51236 0.317713 0 
0.512431 0.342367 0 
0.537481 0.317632 0 
0.537496 0.342315 0 
0.563893 0.177127 0 
0.563416 0.199252 0 
0.590273 0.175063 0 
0.589026 0.197901 0 
0.563113 0.22182 0 
0.562887 0.244986 0 
0.588515 0.220903 0 
0.588157 0.244388 0 
0.562734 0.268811 0 
0.562623 0.292946 0 
0.587917 0.268432 0 
0.587737 0.292731 0 
0.562577 0.317522 0 
0.562551 0.342245 0 
0.58765 0.317383 0 
0.587595 0.342157 0 
0.615412 0.172534 0 
0.614243 0.196214 0 
0.63944 0.1696 0 
0.639077 0.194209 0 
0.613704 0.219832 0 
0.613307 0.243748 0 
0.638693 0.218606 0 
0.63834 0.243064 0 
0.613023 0.268038 0 
0.612804 0.292511 0 
0.638052 0.267628 0 
0.637825 0.292286 0 
0.612694 0.317243 0 
0.612624 0.342068 0 
0.63771 0.317102 0 
0.637636 0.341979 0 
0.663768 0.167851 0 
0.663841 0.192934 0 
0.688458 0.167254 0 
0.688565 0.192364 0 
0.663605 0.217792 0 
0.663327 0.242592 0 
0.688449 0.217375 0 
0.688269 0.242327 0 
0.663058 0.267347 0 
0.662838 0.292135 0 
0.688041 0.26719 0 
0.687842 0.292056 0 
0.662722 0.317007 0 
0.662645 0.34192 0 
0.687728 0.316959 0 
0.68765 0.34189 0 
CELLS 64 128
1 0
1 1
1 2
1 3
1 4
1 5
1 6
1 7
1 8
1 9
1 10
1 11
1 12
1 13
1 14
1 15
1 16
1 17
1 18
1 19
1 20
1 21
1 22
1 23
1 24
1 25
1 26
1 27
1 28
1 29
1 30
1 31
1 32
1 33
1 34
1 35
1 36
1 37
1 38
1 39
1 40
1 41
1 42
1 43
1 44
1 45
1 46
1 47
1 48
1 49
1 50
1 51
1 52
1 53
1 54
1 55
1 56
1 57
1 58
1 59
1 60
1 61
1 62
1 63
CELL_TYPES 64
1
1
1
1
1
1
1
1
1
1
1
1
1
1
1
1
1
1
1
1
1
1
1
1
1
1
1
1
1
1
1
1
1
1
1
1
1
1
1
1
1
1
1
1
1
1
1
1
1
1
1
1
1
1
1
1
1
1
1
1
1
1
1
1
POINT_DATA 64
VECTORS displacement double
-0.000873792 -0.432382 0 
-0.000838799 -0.435916 0 
0.000195615 -0.433697 0 
0.000134958 -0.437021 0 
-0.000741356 -0.439215 0 
-0.000590303 -0.441654 0 
2.9094e-05 -0.439886 0 
-2.78338e-05 -0.442028 0 
-0.000395188 -0.443158 0 
-0.000235489 -0.444257 0 
-3.62622e-05 -0.443386 0 
-3.41385e-05 -0.444383 0 
-0.000139765 -0.444787 0 
-6.91368e-05 -0.445133 0 
-1.94096e-05 -0.444868 0 
-3.75921e-06 -0.445185 0 
0.00139272 -0.435373 0 
0.000916341 -0.438248 0 
0.00277305 -0.437437 0 
0.00152601 -0.439599 0 
0.000612579 -0.44068 0 
0.000387277 -0.442514 0 
0.00101478 -0.441597 0 
0.000657355 -0.443112 0 
0.000234432 -0.443689 0 
0.000123329 -0.444554 0 
0.000417461 -0.444068 0 
0.000237044 -0.444769 0 
7.71163e-05 -0.444978 0 
5.11072e-05 -0.445255 0 
0.000149859 -0.445117 0 
9.54709e-05 -0.445343 0 
0.00291209 -0.439966 0 
0.00174348 -0.441286 0 
0.00193993 -0.4429 0 
0.00157707 -0.443291 0 
0.00120432 -0.442668 0 
0.000806706 -0.443752 0 
0.00119307 -0.443894 0 
0.000840142 -0.444436 0 
0.000522654 -0.444462 0 
0.000304062 -0.444989 0 
0.000552007 -0.444872 0 
0.000325056 -0.445214 0 
0.000194152 -0.445257 0 
0.000123702 -0.445432 0 
0.000210247 -0.445398 0 
0.0001359 -0.445521 0 
0.00126762 -0.444649 0 
0.00134137 -0.444566 0 
0.000957667 -0.445246 0 
0.00106463 -0.445136 0 
0.00110549 -0.444708 0 
0.000826975 -0.444908 0 
0.000948502 -0.445125 0 
0.000769479 -0.445173 0 
0.000558057 -0.445153 0 
0.000337656 -0.445365 0 
0.000541493 -0.44531 0 
0.000342004 -0.445444 0 
0.000221604 -0.445493 0 
0.000144751 -0.44558 0 
0.000228281 -0.445541 0 
0.000150284 -0.44561 0 
VECTORS velocity double
-0.296212 -0.47407 0 
-0.260177 -1.41888 0 
-0.0940351 -0.764427 0 
0.0103064 -1.72975 0 
-0.224365 -1.87681 0 
-0.173615 -2.13053 0 
0.0127717 -2.03824 0 
0.0103467 -2.21332 0 
-0.112765 -2.39414 0 
-0.0681804 -2.60869 0 
0.00118717 -2.44943 0 
-0.00533748 -2.64351 0 
-0.0390923 -2.71717 0 
-0.0158414 -2.78159 0 
-0.00232916 -2.73993 0 
0.00300817 -2.79635 0 
0.228476 -1.05578 0 
0.135383 -1.92266 0 
0.714131 -1.37662 0 
0.128968 -2.00424 0 
0.13155 -2.1694 0 
0.118557 -2.31164 0 
0.133454 -2.26862 0 
0.151506 -2.42491 0 
0.072102 -2.51514 0 
0.0352042 -2.68218 0 
0.10016 -2.59139 0 
0.0534799 -2.72474 0 
0.0218413 -2.76508 0 
0.0161845 -2.81331 0 
0.0334272 -2.79263 0 
0.0236851 -2.83244 0 
0.752055 -1.89868 0 
0.186808 -2.22623 0 
0.332176 -2.60234 0 
0.28287 -2.57928 0 
0.169603 -2.42032 0 
0.1731 -2.54818 0 
0.240069 -2.62312 0 
0.184753 -2.68174 0 
0.115683 -2.67241 0 
0.0643744 -2.77055 0 
0.118959 -2.75814 0 
0.0679718 -2.81957 0 
0.0407887 -2.82212 0 
0.0284812 -2.85257 0 
0.0439586 -2.85352 0 
0.030596 -2.87369 0 
0.10867 -2.93713 0 
0.289983 -2.78251 0 
0.127656 -2.89921 0 
0.22556 -2.83868 0 
0.252672 -2.75501 0 
0.182931 -2.77187 0 
0.209244 -2.81908 0 
0.16754 -2.82033 0 
0.119769 -2.8137 0 
0.0720335 -2.84943 0 
0.118161 -2.83983 0 
0.076554 -2.86041 0 
0.0473373 -2.87243 0 
0.0324244 -2.88674 0 
0.0509234 -2.87898 0 
0.0339686 -2.89179 0 
SCALARS mass double 1
LOOKUP_TABLE default
0.625
0.625
0.625
0.625
0.625
0.625
0.625
0.625
0.625
0.625
0.625
0.625
0.625
0.625
0.625
0.625
0.625
0.625
0.625
0.625
0.625
0.625
0.625
0.625
0.625
0.625
0.625
0.625
0.625
0.625
0.625
0.625
0.625
0.625
0.625
0.625
0.625
0.625
0.625
0.625
0.625
0.625
0.625
0.625
0.625
0.625
0.625
0.625
0.625
0.625
0.625
0.625
0.625
0.625
0.625
0.625
0.625
0.625
0.625
0.625
0.625
0.625
0.625
0.625
SCALARS volume double 1
LOOKUP_TABLE default
0.000558158
0.000560846
0.000557409
0.000571996
0.000565456
0.000595188
0.000575777
0.000599578
0.000599463
0.000611526
0.000602733
0.000613131
0.00061685
0.000621861
0.000617786
0.000622284
0.000574244
0.000574697
0.000599287
0.000587146
0.000577394
0.000597694
0.000587396
0.000603552
0.000602667
0.000613104
0.000607792
0.000615779
0.000617879
0.000622315
0.00061949
0.000623004
0.000569185
0.000585822
0.000592138
0.000606704
0.000591446
0.000605064
0.000609069
0.00061386
0.000609532
0.000616315
0.000615404
0.000619297
0.00061974
0.000622905
0.000621441
0.000623622
0.000622288
0.000616794
0.000620939
0.00061958
0.000616549
0.000617742
0.000620714
0.000620941
0.000618446
0.000621005
0.00062089
0.000622233
0.000622365
0.000623929
0.000622978
0.000624153
VECTORS momentum double
-0.185132 -0.296294 0 
-0.16261 -0.886799 0 
-0.0587719 -0.477767 0 
0.00644148 -1.08109 0 
-0.140228 -1.17301 0 
-0.108509 -1.33158 0 
0.00798232 -1.2739 0 
0.00646667 -1.38333 0 
-0.0704778 -1.49634 0 
-0.0426127 -1.63043 0 
0.000741979 -1.5309 0 
-0.00333593 -1.65219 0 
-0.0244327 -1.69823 0 
-0.00990086 -1.73849 0 
-0.00145572 -1.71246 0 
0.00188011 -1.74772 0 
0.142797 -0.659865 0 
0.0846145 -1.20166 0 
0.446332 -0.860385 0 
0.0806051 -1.25265 0 
0.0822187 -1.35587 0 
0.0740984 -1.44478 0 
0.0834087 -1.41789 0 
0.0946915 -1.51557 0 
0.0450637 -1.57196 0 
0.0220026 -1.67636 0 
0.0625998 -1.61962 0 
0.0334249 -1.70296 0 
0.0136508 -1.72818 0 
0.0101153 -1.75832 0 
0.020892 -1.7454 0 
0.0148032 -1.77027 0 
0.470034 -1.18668 0 
0.116755 -1.39139 0 
0.20761 -1.62646 0 
0.176794 -1.61205 0 
0.106002 -1.5127 0 
0.108188 -1.59261 0 
0.150043 -1.63945 0 
0.115471 -1.67609 0 
0.0723016 -1.67025 0 
0.040234 -1.73159 0 
0.0743494 -1.72384 0 
0.0424824 -1.76223 0 
0.0254929 -1.76382 0 
0.0178008 -1.78285 0 
0.0274741 -1.78345 0 
0.0191225 -1.79606 0 
0.067919 -1.83571 0 
0.18124 -1.73907 0 
0.079785 -1.812 0 
0.140975 -1.77417 0 
0.15792 -1.72188 0 
0.114332 -1.73242 0 
0.130778 -1.76193 0 
0.104713 -1.76271 0 
0.0748559 -1.75856 0 
0.045021 -1.78089 0 
0.0738506 -1.77489 0 
0.0478463 -1.78776 0 
0.0295858 -1.79527 0 
0.0202652 -1.80421 0 
0.0318271 -1.79936 0 
0.0212304 -1.80737 0 
VECTORS body_force double
0 -9.81 0 
0 -9.81 0 
0 -9.81 0 
0 -9.81 0 
0 -9.81 0 
0 -9.81 0 
0 -9.81 0 
0 -9.81 0 
0 -9.81 0 
0 -9.81 0 
0 -9.81 0 
0 -9.81 0 
0 -9.81 0 
0 -9.81 0 
0 -9.81 0 
0 -9.81 0 
0 -9.81 0 
0 -9.81 0 
0 -9.81 0 
0 -9.81 0 
0 -9.81 0 
0 -9.81 0 
0 -9.81 0 
0 -9.81 0 
0 -9.81 0 
0 -9.81 0 
0 -9.81 0 
0 -9.81 0 
0 -9.81 0 
0 -9.81 0 
0 -9.81 0 
0 -9.81 0 
0 -9.81 0 
0 -9.81 0 
0 -9.81 0 
0 -9.81 0 
0 -9.81 0 
0 -9.81 0 
0 -9.81 0 
0 -9.81 0 
0 -9.81 0 
0 -9.81 0 
0 -9.81 0 
0 -9.81 0 
0 -9.81 0 
0 -9.81 0 
0 -9.81 0 
0 -9.81 0 
0 -9.81 0 
0 -9.81 0 
0 -9.81 0 
0 -9.81 0 
0 -9.81 0 
0 -9.81 0 
0 -9.81 0 
0 -9.81 0 
0 -9.81 0 
0 -9.81 0 
0 -9.81 0 
0 -9.81 0 
0 -9.81 0 
0 -9.81 0 
0 -9.81 0 
0 -9.81 0 
TENSORS cauchy_stress double
-3353.35 -2341.06 0
-2341.06 -18398.5 0
0 0 0

-3346.25 -1795.35 0
-1795.35 -17481.8 0
0 0 0

-3438.94 -2413.12 0
-2413.12 -18571.2 0
0 0 0

-2203.7 -2067.93 0
-2067.93 -14838.5 0
0 0 0

-3453.81 -984.872 0
-984.872 -15799.9 0
0 0 0

-1108.62 -319.64 0
-319.64 -8290.2 0
0 0 0

-2404.71 -1293.79 0
-1293.79 -13370.5 0
0 0 0

-683.057 -632.348 0
-632.348 -7302.62 0
0 0 0

-1309.26 -78.2986 0
-78.2986 -6713.2 0
0 0 0

-639.915 -21.169 0
-21.169 -3551.16 0
0 0 0

-995.021 -373.342 0
-373.342 -5981.51 0
0 0 0

-488.427 -184.6 0
-184.6 -3198.6 0
0 0 0

-387.525 5.46313 0
5.46313 -2136.66 0
0 0 0

-89.4967 -6.47672 0
-6.47672 -878.694 0
0 0 0

-300.067 -101.262 0
-101.262 -1932.49 0
0 0 0

-50.2419 -56.7072 0
-56.7072 -787.201 0
0 0 0

-1060.2 -4526.2 0
-4526.2 -15227.7 0
0 0 0

-3094.53 -2753.53 0
-2753.53 -13041.7 0
0 0 0

1607.38 -6293.71 0
-6293.71 -9686.44 0
0 0 0

-1816.14 -3202.61 0
-3202.61 -10198.7 0
0 0 0

-3386.66 -1952.51 0
-1952.51 -11849.3 0
0 0 0

-1768.39 -1213.15 0
-1213.15 -6822.38 0
0 0 0

-2386.23 -2194.24 0
-2194.24 -9546.79 0
0 0 0

-1201.41 -1362.72 0
-1362.72 -5513.76 0
0 0 0

-1545.62 -818.242 0
-818.242 -5451.76 0
0 0 0

-761.793 -445.196 0
-445.196 -2933.69 0
0 0 0

-1055.03 -940.705 0
-940.705 -4314 0
0 0 0

-509.786 -525.757 0
-525.757 -2348.43 0
0 0 0

-438.507 -271.145 0
-271.145 -1765.15 0
0 0 0

-112.289 -150.758 0
-150.758 -715.796 0
0 0 0

-288 -326.441 0
-326.441 -1414.88 0
0 0 0

-48.3251 -174.964 0
-174.964 -566.829 0
0 0 0

-8704.37 -7318.95 0
-7318.95 -9285.32 0
0 0 0

-4390.99 -4222.79 0
-4222.79 -8058.26 0
0 0 0

-6690.26 -5246.24 0
-5246.24 -3696.81 0
0 0 0

-2433.79 -3745.11 0
-3745.11 -3279.72 0
0 0 0

-3284.35 -2688.36 0
-2688.36 -7327.3 0
0 0 0

-1789.57 -1555.4 0
-1555.4 -4444.63 0
0 0 0

-1592.84 -2543.47 0
-2543.47 -3372.55 0
0 0 0

-956.829 -1553.9 0
-1553.9 -2501.84 0
0 0 0

-1364.29 -1048.94 0
-1048.94 -3454.92 0
0 0 0

-745.108 -584.229 0
-584.229 -1945.79 0
0 0 0

-810.767 -1059.3 0
-1059.3 -2164.71 0
0 0 0

-466.469 -596.514 0
-596.514 -1296.24 0
0 0 0

-439.098 -361.3 0
-361.3 -1186.17 0
0 0 0

-156.45 -190.749 0
-190.749 -489.209 0
0 0 0

-280.906 -367.281 0
-367.281 -817.229 0
0 0 0

-90.0272 -196.625 0
-196.625 -334.309 0
0 0 0

-1210.75 -549.598 0
-549.598 374.511 0
0 0 0

-1630.2 -1066.63 0
-1066.63 -911.525 0
0 0 0

-1337.43 -611.904 0
-611.904 83.7303 0
0 0 0

-1372.3 -902.122 0
-902.122 -302.716 0
0 0 0

-1276.32 -1073.47 0
-1073.47 -1341.59 0
0 0 0

-853.967 -838.246 0
-838.246 -1392.31 0
0 0 0

-891.668 -882.154 0
-882.154 -431.523 0
0 0 0

-557.733 -740.569 0
-740.569 -695.202 0
0 0 0

-660.017 -642.378 0
-642.378 -1367.3 0
0 0 0

-356.642 -370.138 0
-370.138 -876.619 0
0 0 0

-432.958 -595.055 0
-595.055 -835.697 0
0 0 0

-242.779 -357.456 0
-357.456 -610.577 0
0 0 0

-223.249 -224.911 0
-224.911 -589.209 0
0 0 0

-81.9708 -110.059 0
-110.059 -247.932 0
0 0 0

-166.42 -224.812 0
-224.812 -456.629 0
0 0 0

-61.2242 -114.529 0
-114.529 -199.56 0
0 0 0

TENSORS velocity_gradient double
5.38834 0.667999 0
-7.02909 -15.1984 0
0 0 0

5.573 0.894351 0
-6.38492 -15.4113 0
0 0 0

5.36341 1.22997 0
-7.04775 -14.7776 0
0 0 0

5.5819 0.363924 0
-6.43024 -13.8931 0
0 0 0

4.78386 0.969607 0
-4.74835 -15.4792 0
0 0 0

3.8484 1.01447 0
-3.03694 -13.242 0
0 0 0

4.80629 -0.0646764 0
-4.79219 -13.4578 0
0 0 0

3.86135 -0.0609229 0
-3.05395 -11.7477 0
0 0 0

2.78117 1.10463 0
-2.03486 -8.87743 0
0 0 0

1.70152 1.017 0
-1.2272 -7.91132 0
0 0 0

2.78936 -0.0572681 0
-2.041 -8.00504 0
0 0 0

1.70462 -0.0274274 0
-1.22939 -7.18029 0
0 0 0

1.09715 0.604986 0
-0.829249 -3.06721 0
0 0 0

0.643236 0.560347 0
-0.558934 -2.66681 0
0 0 0

1.09829 0.132209 0
-0.82993 -2.78459 0
0 0 0

0.643616 0.136299 0
-0.559133 -2.42756 0
0 0 0

7.79912 -1.20496 0
-11.6875 -12.1881 0
0 0 0

3.99712 -1.04411 0
-8.16632 -11.8355 0
0 0 0

8.14731 -6.34729 0
-11.9956 -7.6377 0
0 0 0

4.12888 -4.01149 0
-8.30777 -8.74978 0
0 0 0

2.83853 -0.982949 0
-6.26964 -11.5464 0
0 0 0

2.10801 -0.959905 0
-4.63032 -10.2403 0
0 0 0

2.86295 -1.79129 0
-6.32422 -9.73941 0
0 0 0

2.12113 -1.70727 0
-4.6605 -8.73382 0
0 0 0

1.53107 -0.914902 0
-3.27106 -6.89757 0
0 0 0

1.00244 -0.812158 0
-2.01004 -6.24048 0
0 0 0

1.53769 -1.47356 0
-3.28691 -5.55916 0
0 0 0

1.00511 -1.33756 0
-2.01595 -5.08284 0
0 0 0

0.690254 -0.229522 0
-1.37666 -2.4164 0
0 0 0

0.448871 -0.188554 0
-0.941397 -2.11528 0
0 0 0

0.691298 -0.48072 0
-1.37854 -1.96305 0
0 0 0

0.449165 -0.414707 0
-0.941907 -1.72755 0
0 0 0

-4.29905 -5.39245 0
-15.5812 -3.60367 0
0 0 0

-0.117042 -4.33195 0
-11.9959 -4.94561 0
0 0 0

-4.79967 -0.669744 0
-15.9695 0.0595987 0
0 0 0

-0.280871 -1.11502 0
-12.2476 -0.798764 0
0 0 0

0.564931 -2.21945 0
-8.57291 -6.98547 0
0 0 0

0.464012 -2.13446 0
-5.24905 -6.45117 0
0 0 0

0.569158 -2.32347 0
-8.71751 -3.42699 0
0 0 0

0.466458 -2.25894 0
-5.30455 -3.34909 0
0 0 0

0.352749 -1.80417 0
-3.41844 -4.16657 0
0 0 0

0.24044 -1.6614 0
-2.03074 -3.85456 0
0 0 0

0.354264 -1.92077 0
-3.4372 -2.72326 0
0 0 0

0.240997 -1.78656 0
-2.03735 -2.55427 0
0 0 0

0.181246 -0.626933 0
-1.36337 -1.50921 0
0 0 0

0.138215 -0.551627 0
-0.924123 -1.33493 0
0 0 0

0.181433 -0.670481 0
-1.36532 -1.05492 0
0 0 0

0.138315 -0.598504 0
-0.924617 -0.937183 0
0 0 0

-1.57585 1.50633 0
-3.57214 1.56665 0
0 0 0

-1.46054 0.974044 0
-3.7835 1.14734 0
0 0 0

-1.57776 1.59923 0
-3.56683 1.30852 0
0 0 0

-1.46769 1.26422 0
-3.79116 1.14293 0
0 0 0

-0.927816 -2.02088 0
-3.00589 -1.21345 0
0 0 0

-0.293961 -2.01208 0
-1.96363 -1.2853 0
0 0 0

-0.936791 -1.36923 0
-3.02047 -0.154918 0
0 0 0

-0.297348 -1.41839 0
-1.97085 -0.265632 0
0 0 0

-0.0536925 -1.91194 0
-1.26667 -1.71614 0
0 0 0

0.0676939 -1.79508 0
-0.681063 -1.62662 0
0 0 0

-0.0543232 -1.78619 0
-1.26968 -1.1157 0
0 0 0

0.0675639 -1.68889 0
-0.681992 -1.07279 0
0 0 0

0.0794131 -0.702941 0
-0.435067 -0.758105 0
0 0 0

0.0572656 -0.634579 0
-0.296207 -0.674839 0
0 0 0

0.0794451 -0.724598 0
-0.435279 -0.614725 0
0 0 0

0.0572965 -0.659856 0
-0.296247 -0.54928 0
0 0 0

SCALARS active double 1
LOOKUP_TABLE default
1
1
1
1
1
1
1
1
1
1
1
1
1
1
1
1
1
1
1
1
1
1
1
1
1
1
1
1
1
1
1
1
1
1
1
1
1
1
1
1
1
1
1
1
1
1
1
1
1
1
1
1
1
1
1
1
1
1
1
1
1
1
1
1
SCALARS extent double 1
LOOKUP_TABLE default
0.0125
0.0125
0.0125
0.0125
0.0125
0.0125
0.0125
0.0125
0.0125
0.0125
0.0125
0.0125
0.0125
0.0125
0.0125
0.0125
0.0125
0.0125
0.0125
0.0125
0.0125
0.0125
0.0125
0.0125
0.0125
0.0125
0.0125
0.0125
0.0125
0.0125
0.0125
0.0125
0.0125
0.0125
0.0125
0.0125
0.0125
0.0125
0.0125
0.0125
0.0125
0.0125
0.0125
0.0125
0.0125
0.0125
0.0125
0.0125
0.0125
0.0125
0.0125
0.0125
0.0125
0.0125
0.0125
0.0125
0.0125
0.0125
0.0125
0.0125
0.0125
0.0125
0.0125
0.0125
SCALARS pressure double 1
LOOKUP_TABLE default
10875.9
10414
11005.1
8521.08
9626.84
4699.41
7887.63
3992.84
4011.23
2095.54
3488.26
1843.52
1262.09
484.095
1116.28
418.721
8143.97
8068.1
4039.53
6007.44
7618
4295.38
5966.51
3357.59
3498.69
1847.74
2684.51
1429.11
1101.83
414.043
851.438
307.577
8994.84
6224.62
5193.54
2856.75
5305.83
3117.1
2482.7
1729.33
2409.6
1345.45
1487.74
881.357
812.631
322.829
549.067
212.168
418.12
1270.86
626.847
837.508
1308.96
1123.14
661.595
626.468
1013.66
616.631
634.328
426.678
406.229
164.951
311.525
130.392
SCALARS density double 1
LOOKUP_TABLE default
1119.75
1114.39
1121.26
1092.66
1105.3
1050.09
1085.49
1042.4
1042.6
1022.03
1036.94
1019.36
1013.21
1005.05
1011.68
1004.36
1088.39
1087.53
1042.91
1064.47
1082.45
1045.68
1064.02
1035.54
1037.06
1019.4
1028.31
1014.97
1011.52
1004.32
1008.89
1003.2
1098.06
1066.88
1055.5
1030.16
1056.73
1032.95
1026.16
1018.15
1025.38
1014.09
1015.59
1009.21
1008.49
1003.36
1005.73
1002.21
1004.36
1013.3
1006.54
1008.75
1013.71
1011.75
1006.9
1006.54
1010.6
1006.43
1006.62
1004.45
1004.23
1001.72
1003.25
1001.36
