# vtk DataFile Version 3.0
Frame: 15, Time: 0.267
ASCII
DATASET UNSTRUCTURED_GRID
POINTS 64 double
0.5125 0.258889 0 
0.5125 0.283889 0 
0.5375 0.258889 0 
0.5375 0.283889 0 
0.5125 0.308889 0 
0.5125 0.333889 0 
0.5375 0.308889 0 
0.5375 0.333889 0 
0.5125 0.358889 0 
0.5125 0.383889 0 
0.5375 0.358889 0 
0.5375 0.383889 0 
0.5125 0.408889 0 
0.5125 0.433889 0 
0.5375 0.408889 0 
0.5375 0.433889 0 
0.5625 0.258889 0 
0.5625 0.283889 0 
0.5875 0.258889 0 
0.5875 0.283889 0 
0.5625 0.308889 0 
0.5625 0.333889 0 
0.5875 0.308889 0 
0.5875 0.333889 0 
0.5625 0.358889 0 
0.5625 0.383889 0 
0.5875 0.358889 0 
0.5875 0.383889 0 
0.5625 0.408889 0 
0.5625 0.433889 0 
0.5875 0.408889 0 
0.5875 0.433889 0 
0.6125 0.258889 0 
0.6125 0.283889 0 
0.6375 0.258889 0 
0.6375 0.283889 0 
0.6125 0.308889 0 
0.6125 0.333889 0 
0.6375 0.308889 0 
0.6375 0.333889 0 
0.6125 0.358889 0 
0.6125 0.383889 0 
0.6375 0.358889 0 
0.6375 0.383889 0 
0.6125 0.408889 0 
0.6125 0.433889 0 
0.6375 0.408889 0 
0.6375 0.433889 0 
0.6625 0.258889 0 
0.6625 0.283889 0 
0.6875 0.258889 0 
0.6875 0.283889 0 
0.6625 0.308889 0 
0.6625 0.333889 0 
0.6875 0.308889 0 
0.6875 0.333889 0 
0.6625 0.358889 0 
0.6625 0.383889 0 
0.6875 0.358889 0 
0.6875 0.383889 0 
0.6625 0.408889 0 
0.6625 0.433889 0 
0.6875 0.408889 0 
0.6875 0.433889 0 
CELLS 64 128
1 0
1 1
1 2
1 3
1 4
1 5
1 6
1 7
1 8
1 9
1 10
1 11
1 12
1 13
1 14
1 15
1 16
1 17
1 18
1 19
1 20
1 21
1 22
1 23
1 24
1 25
1 26
1 27
1 28
1 29
1 30
1 31
1 32
1 33
1 34
1 35
1 36
1 37
1 38
1 39
1 40
1 41
1 42
1 43
1 44
1 45
1 46
1 47
1 48
1 49
1 50
1 51
1 52
1 53
1 54
1 55
1 56
1 57
1 58
1 59
1 60
1 61
1 62
1 63
CELL_TYPES 64
1
1
1
1
1
1
1
1
1
1
1
1
1
1
1
1
1
1
1
1
1
1
1
1
1
1
1
1
1
1
1
1
1
1
1
1
1
1
1
1
1
1
1
1
1
1
1
1
1
1
1
1
1
1
1
1
1
1
1
1
1
1
1
1
POINT_DATA 64
VECTORS displacement double
-3.43037e-16 -0.353611 0 
-1.94242e-16 -0.353611 0 
-3.25787e-16 -0.353611 0 
-1.81547e-16 -0.353611 0 
-5.32909e-17 -0.353611 0 
4.48161e-17 -0.353611 0 
-4.42607e-17 -0.353611 0 
5.12027e-17 -0.353611 0 
1.29484e-16 -0.353611 0 
2.28297e-16 -0.353611 0 
1.33762e-16 -0.353611 0 
2.29406e-16 -0.353611 0 
3.20289e-16 -0.353611 0 
4.12595e-16 -0.353611 0 
3.24162e-16 -0.353611 0 
4.16426e-16 -0.353611 0 
-2.99692e-16 -0.353611 0 
-1.68917e-16 -0.353611 0 
-2.64755e-16 -0.353611 0 
-1.5635e-16 -0.353611 0 
-4.3075e-17 -0.353611 0 
5.17349e-17 -0.353611 0 
-4.97338e-17 -0.353611 0 
4.64127e-17 -0.353611 0 
1.37031e-16 -0.353611 0 
2.32066e-16 -0.353611 0 
1.39289e-16 -0.353611 0 
2.36277e-16 -0.353611 0 
3.28565e-16 -0.353611 0 
4.22713e-16 -0.353611 0 
3.33497e-16 -0.353611 0 
4.31456e-16 -0.353611 0 
-2.30515e-16 -0.353611 0 
-1.44236e-16 -0.353611 0 
-1.96973e-16 -0.353611 0 
-1.32575e-16 -0.353611 0 
-5.63578e-17 -0.353611 0 
4.21883e-17 -0.353611 0 
-6.29468e-17 -0.353611 0 
3.90616e-17 -0.353611 0 
1.4206e-16 -0.353611 0 
2.38498e-16 -0.353611 0 
1.45343e-16 -0.353611 0 
2.38731e-16 -0.353611 0 
3.37183e-16 -0.353611 0 
4.38534e-16 -0.353611 0 
3.39625e-16 -0.353611 0 
4.43948e-16 -0.353611 0 
-1.73389e-16 -0.353611 0 
-1.21444e-16 -0.353611 0 
-1.59763e-16 -0.353611 0 
-1.10843e-16 -0.353611 0 
-6.25917e-17 -0.353611 0 
3.93596e-17 -0.353611 0 
-5.52927e-17 -0.353611 0 
4.30821e-17 -0.353611 0 
1.4864e-16 -0.353611 0 
2.39339e-16 -0.353611 0 
1.51953e-16 -0.353611 0 
2.40323e-16 -0.353611 0 
3.42404e-16 -0.353611 0 
4.46469e-16 -0.353611 0 
3.4552e-16 -0.353611 0 
4.46096e-16 -0.353611 0 
VECTORS velocity double
4.33607e-15 -2.62908 0 
-7.49695e-16 -2.62908 0 
-4.10745e-16 -2.62908 0 
3.45377e-16 -2.62908 0 
-4.22003e-15 -2.62908 0 
-3.45256e-15 -2.62908 0 
8.32297e-18 -2.62908 0 
-1.59038e-15 -2.62908 0 
1.90565e-15 -2.62908 0 
7.14545e-15 -2.62908 0 
1.01878e-15 -2.62908 0 
4.28495e-15 -2.62908 0 
3.16753e-15 -2.62908 0 
2.24696e-15 -2.62908 0 
3.91941e-15 -2.62908 0 
3.77189e-15 -2.62908 0 
-3.40672e-15 -2.62908 0 
4.15783e-16 -2.62908 0 
-4.65186e-15 -2.62908 0 
-5.38476e-16 -2.62908 0 
1.55018e-15 -2.62908 0 
-4.33198e-16 -2.62908 0 
4.05547e-16 -2.62908 0 
1.89845e-17 -2.62908 0 
8.84103e-16 -2.62908 0 
2.96929e-15 -2.62908 0 
1.50162e-15 -2.62908 0 
3.19847e-15 -2.62908 0 
3.61422e-15 -2.62908 0 
4.44451e-15 -2.62908 0 
2.25195e-15 -2.62908 0 
4.26484e-15 -2.62908 0 
-5.24249e-15 -2.62908 0 
-1.29295e-15 -2.62908 0 
-5.17861e-15 -2.62908 0 
-1.84763e-15 -2.62908 0 
-9.60175e-16 -2.62908 0 
7.65659e-16 -2.62908 0 
-2.54698e-15 -2.62908 0 
1.80683e-15 -2.62908 0 
2.16441e-15 -2.62908 0 
2.73333e-15 -2.62908 0 
2.8725e-15 -2.62908 0 
1.57386e-15 -2.62908 0 
1.09162e-15 -2.62908 0 
4.24978e-15 -2.62908 0 
1.33254e-16 -2.62908 0 
4.39936e-15 -2.62908 0 
-7.2497e-15 -2.62908 0 
-1.57595e-15 -2.62908 0 
-1.14558e-14 -2.62908 0 
-4.77926e-16 -2.62908 0 
-9.80208e-16 -2.62908 0 
2.82374e-15 -2.62908 0 
3.74015e-15 -2.62908 0 
3.81642e-15 -2.62908 0 
1.95337e-15 -2.62908 0 
-9.0462e-16 -2.62908 0 
-5.92979e-16 -2.62908 0 
-4.7021e-15 -2.62908 0 
-4.87131e-16 -2.62908 0 
4.62189e-15 -2.62908 0 
-7.6953e-16 -2.62908 0 
4.91738e-15 -2.62908 0 
SCALARS mass double 1
LOOKUP_TABLE default
0.625
0.625
0.625
0.625
0.625
0.625
0.625
0.625
0.625
0.625
0.625
0.625
0.625
0.625
0.625
0.625
0.625
0.625
0.625
0.625
0.625
0.625
0.625
0.625
0.625
0.625
0.625
0.625
0.625
0.625
0.625
0.625
0.625
0.625
0.625
0.625
0.625
0.625
0.625
0.625
0.625
0.625
0.625
0.625
0.625
0.625
0.625
0.625
0.625
0.625
0.625
0.625
0.625
0.625
0.625
0.625
0.625
0.625
0.625
0.625
0.625
0.625
0.625
0.625
SCALARS volume double 1
LOOKUP_TABLE default
0.000625
0.000625
0.000625
0.000625
0.000625
0.000625
0.000625
0.000625
0.000625
0.000625
0.000625
0.000625
0.000625
0.000625
0.000625
0.000625
0.000625
0.000625
0.000625
0.000625
0.000625
0.000625
0.000625
0.000625
0.000625
0.000625
0.000625
0.000625
0.000625
0.000625
0.000625
0.000625
0.000625
0.000625
0.000625
0.000625
0.000625
0.000625
0.000625
0.000625
0.000625
0.000625
0.000625
0.000625
0.000625
0.000625
0.000625
0.000625
0.000625
0.000625
0.000625
0.000625
0.000625
0.000625
0.000625
0.000625
0.000625
0.000625
0.000625
0.000625
0.000625
0.000625
0.000625
0.000625
VECTORS momentum double
2.71004e-15 -1.64318 0 
-4.6856e-16 -1.64317 0 
-2.56715e-16 -1.64318 0 
2.1586e-16 -1.64317 0 
-2.63752e-15 -1.64317 0 
-2.15785e-15 -1.64317 0 
5.20186e-18 -1.64317 0 
-9.93986e-16 -1.64317 0 
1.19103e-15 -1.64318 0 
4.46591e-15 -1.64317 0 
6.36738e-16 -1.64317 0 
2.67809e-15 -1.64317 0 
1.97971e-15 -1.64317 0 
1.40435e-15 -1.64317 0 
2.44963e-15 -1.64317 0 
2.35743e-15 -1.64317 0 
-2.1292e-15 -1.64318 0 
2.59864e-16 -1.64317 0 
-2.90741e-15 -1.64317 0 
-3.36548e-16 -1.64317 0 
9.68864e-16 -1.64317 0 
-2.70749e-16 -1.64317 0 
2.53467e-16 -1.64317 0 
1.18653e-17 -1.64317 0 
5.52564e-16 -1.64318 0 
1.85581e-15 -1.64317 0 
9.3851e-16 -1.64317 0 
1.99905e-15 -1.64317 0 
2.25888e-15 -1.64317 0 
2.77782e-15 -1.64317 0 
1.40747e-15 -1.64317 0 
2.66552e-15 -1.64317 0 
-3.27655e-15 -1.64318 0 
-8.08091e-16 -1.64317 0 
-3.23663e-15 -1.64318 0 
-1.15477e-15 -1.64317 0 
-6.00109e-16 -1.64317 0 
4.78537e-16 -1.64317 0 
-1.59186e-15 -1.64317 0 
1.12927e-15 -1.64317 0 
1.35276e-15 -1.64318 0 
1.70833e-15 -1.64317 0 
1.79531e-15 -1.64318 0 
9.83661e-16 -1.64317 0 
6.82265e-16 -1.64318 0 
2.65611e-15 -1.64317 0 
8.32836e-17 -1.64317 0 
2.7496e-15 -1.64317 0 
-4.53106e-15 -1.64317 0 
-9.84971e-16 -1.64317 0 
-7.15985e-15 -1.64318 0 
-2.98704e-16 -1.64317 0 
-6.1263e-16 -1.64317 0 
1.76484e-15 -1.64317 0 
2.33759e-15 -1.64318 0 
2.38526e-15 -1.64317 0 
1.22085e-15 -1.64318 0 
-5.65388e-16 -1.64317 0 
-3.70612e-16 -1.64318 0 
-2.93882e-15 -1.64317 0 
-3.04457e-16 -1.64317 0 
2.88868e-15 -1.64317 0 
-4.80956e-16 -1.64318 0 
3.07336e-15 -1.64317 0 
VECTORS body_force double
0 -9.81 0 
0 -9.81 0 
0 -9.81 0 
0 -9.81 0 
0 -9.81 0 
0 -9.81 0 
0 -9.81 0 
0 -9.81 0 
0 -9.81 0 
0 -9.81 0 
0 -9.81 0 
0 -9.81 0 
0 -9.81 0 
0 -9.81 0 
0 -9.81 0 
0 -9.81 0 
0 -9.81 0 
0 -9.81 0 
0 -9.81 0 
0 -9.81 0 
0 -9.81 0 
0 -9.81 0 
0 -9.81 0 
0 -9.81 0 
0 -9.81 0 
0 -9.81 0 
0 -9.81 0 
0 -9.81 0 
0 -9.81 0 
0 -9.81 0 
0 -9.81 0 
0 -9.81 0 
0 -9.81 0 
0 -9.81 0 
0 -9.81 0 
0 -9.81 0 
0 -9.81 0 
0 -9.81 0 
0 -9.81 0 
0 -9.81 0 
0 -9.81 0 
0 -9.81 0 
0 -9.81 0 
0 -9.81 0 
0 -9.81 0 
0 -9.81 0 
0 -9.81 0 
0 -9.81 0 
0 -9.81 0 
0 -9.81 0 
0 -9.81 0 
0 -9.81 0 
0 -9.81 0 
0 -9.81 0 
0 -9.81 0 
0 -9.81 0 
0 -9.81 0 
0 -9.81 0 
0 -9.81 0 
0 -9.81 0 
0 -9.81 0 
0 -9.81 0 
0 -9.81 0 
0 -9.81 0 
TENSORS cauchy_stress double
1.39775e-10 -2.23652e-11 0
-2.23652e-11 1.49213e-10 0
0 0 0

-1.96114e-11 -6.51706e-12 0
-6.51706e-12 -1.7596e-10 0
0 0 0

1.32487e-10 -3.47728e-11 0
-3.47728e-11 1.32207e-10 0
0 0 0

2.04991e-11 -2.43232e-12 0
-2.43232e-12 -8.23688e-11 0
0 0 0

-3.18395e-11 -1.46578e-11 0
-1.46578e-11 -1.6691e-10 0
0 0 0

-8.37252e-13 -1.96937e-11 0
-1.96937e-11 -6.74572e-11 0
0 0 0

-1.89364e-11 -1.05842e-11 0
-1.05842e-11 -1.36802e-10 0
0 0 0

1.81844e-11 -2.64198e-11 0
-2.64198e-11 -2.30733e-11 0
0 0 0

-1.08228e-12 -2.02312e-11 0
-2.02312e-11 -4.64077e-11 0
0 0 0

2.21955e-11 8.43131e-13 0
8.43131e-13 4.04156e-11 0
0 0 0

3.60102e-11 -6.3077e-12 0
-6.3077e-12 4.01415e-11 0
0 0 0

5.91687e-12 -6.47981e-13 0
-6.47981e-13 2.4321e-12 0
0 0 0

-1.68061e-11 -1.57166e-12 0
-1.57166e-12 -7.89393e-11 0
0 0 0

1.83047e-11 1.05436e-12 0
1.05436e-12 3.41922e-12 0
0 0 0

1.77981e-11 2.37765e-12 0
2.37765e-12 1.80364e-12 0
0 0 0

1.34832e-11 -2.16939e-12 0
-2.16939e-12 -7.83086e-12 0
0 0 0

2.34447e-10 3.78969e-11 0
3.78969e-11 1.88709e-10 0
0 0 0

1.93865e-11 3.13722e-11 0
3.13722e-11 -8.3657e-11 0
0 0 0

1.93214e-10 7.10874e-12 0
7.10874e-12 9.25008e-11 0
0 0 0

1.38909e-11 2.1962e-12 0
2.1962e-12 -9.64801e-11 0
0 0 0

-4.49831e-11 2.5099e-12 0
2.5099e-12 -3.66646e-11 0
0 0 0

-1.98319e-11 -2.30056e-11 0
-2.30056e-11 8.31257e-12 0
0 0 0

-1.25735e-11 -8.03623e-12 0
-8.03623e-12 3.89577e-11 0
0 0 0

-1.38207e-11 -4.7228e-12 0
-4.7228e-12 2.23387e-11 0
0 0 0

3.73571e-11 -2.03638e-11 0
-2.03638e-11 6.40052e-11 0
0 0 0

5.72595e-12 1.11329e-12 0
1.11329e-12 -2.98248e-11 0
0 0 0

5.35961e-11 -1.05971e-11 0
-1.05971e-11 1.01896e-10 0
0 0 0

2.56342e-12 -1.20775e-11 0
-1.20775e-11 -3.72041e-11 0
0 0 0

-2.47157e-11 -5.66389e-12 0
-5.66389e-12 -1.08253e-10 0
0 0 0

4.15473e-11 -2.67013e-13 0
-2.67013e-13 7.27412e-12 0
0 0 0

3.28508e-11 4.32033e-12 0
4.32033e-12 2.60687e-11 0
0 0 0

4.81174e-11 3.85571e-12 0
3.85571e-12 2.26043e-11 0
0 0 0

2.10566e-10 -1.37577e-11 0
-1.37577e-11 1.47295e-10 0
0 0 0

-3.1721e-12 9.91608e-12 0
9.91608e-12 -1.26998e-10 0
0 0 0

2.09579e-10 -3.98485e-11 0
-3.98485e-11 1.44992e-10 0
0 0 0

3.5121e-11 -2.05982e-11 0
-2.05982e-11 -3.76471e-11 0
0 0 0

-3.22951e-11 1.8859e-11 0
1.8859e-11 -7.77569e-12 0
0 0 0

-1.05668e-12 1.96319e-11 0
1.96319e-11 2.96025e-11 0
0 0 0

-5.73663e-11 7.56675e-12 0
7.56675e-12 -6.62754e-11 0
0 0 0

-6.62914e-12 3.50877e-11 0
3.50877e-11 1.66e-11 0
0 0 0

6.60554e-11 2.62409e-11 0
2.62409e-11 1.20456e-10 0
0 0 0

2.08826e-11 1.57256e-11 0
1.57256e-11 4.63374e-11 0
0 0 0

1.6468e-11 2.30025e-11 0
2.30025e-11 4.75188e-12 0
0 0 0

-3.3704e-12 2.31861e-11 0
2.31861e-11 -1.0253e-11 0
0 0 0

1.92047e-11 8.54886e-12 0
8.54886e-12 1.97698e-11 0
0 0 0

1.71302e-11 -2.11526e-12 0
-2.11526e-12 -1.55614e-11 0
0 0 0

-7.48265e-12 1.06529e-11 0
1.06529e-11 -4.25008e-11 0
0 0 0

4.01871e-11 7.21217e-12 0
7.21217e-12 3.8238e-11 0
0 0 0

1.28184e-10 2.86228e-11 0
2.86228e-11 1.59346e-10 0
0 0 0

2.43168e-12 1.49848e-11 0
1.49848e-11 -1.03057e-10 0
0 0 0

1.43139e-10 9.75153e-12 0
9.75153e-12 1.94241e-10 0
0 0 0

-3.58326e-11 1.30919e-11 0
1.30919e-11 -1.9234e-10 0
0 0 0

-1.81025e-11 1.14748e-11 0
1.14748e-11 -1.17101e-10 0
0 0 0

-1.80515e-12 2.36736e-11 0
2.36736e-11 -4.23917e-11 0
0 0 0

-4.08836e-11 1.1295e-11 0
1.1295e-11 -1.70256e-10 0
0 0 0

1.25408e-11 1.85331e-11 0
1.85331e-11 -8.91799e-12 0
0 0 0

3.5076e-11 2.45836e-12 0
2.45836e-12 4.78741e-11 0
0 0 0

1.90045e-12 -1.01377e-11 0
-1.01377e-11 -5.65165e-12 0
0 0 0

3.22651e-12 1.14703e-11 0
1.14703e-11 -2.64414e-11 0
0 0 0

1.57548e-11 -8.11437e-12 0
-8.11437e-12 2.66751e-11 0
0 0 0

8.51171e-12 1.65556e-11 0
1.65556e-11 -1.21004e-11 0
0 0 0

8.25051e-12 2.18992e-11 0
2.18992e-11 2.30807e-11 0
0 0 0

5.64944e-13 2.50866e-11 0
2.50866e-11 -3.06428e-11 0
0 0 0

-7.9833e-12 7.07958e-12 0
7.07958e-12 -1.47981e-11 0
0 0 0

TENSORS velocity_gradient double
-6.23358e-14 -8.86396e-14 0
8.88178e-14 1.45661e-13 0
0 0 0

-5.11298e-15 -8.86396e-14 0
2.84217e-14 1.42109e-13 0
0 0 0

-6.23358e-14 -3.14167e-14 0
6.39488e-14 1.20792e-13 0
0 0 0

-5.11298e-15 -3.14167e-14 0
5.68434e-14 1.13687e-13 0
0 0 0

2.10648e-14 3.90925e-14 0
5.50671e-14 2.66454e-14 0
0 0 0

1.09028e-14 3.90925e-14 0
1.42109e-14 1.42109e-14 0
0 0 0

2.10648e-14 2.89304e-14 0
1.42109e-14 -2.84217e-14 0
0 0 0

1.09028e-14 2.89304e-14 0
2.84217e-14 0 0
0 0 0

-1.0317e-16 7.66388e-14 0
2.30926e-14 -1.95399e-14 0
0 0 0

-1.2097e-14 7.66388e-14 0
7.10543e-15 -1.06581e-13 0
0 0 0

-1.0317e-16 6.4645e-14 0
1.42109e-14 -1.42109e-14 0
0 0 0

-1.2097e-14 6.4645e-14 0
-1.42109e-14 -7.10543e-14 0
0 0 0

-8.56137e-15 -2.17209e-14 0
3.73035e-14 -1.95399e-14 0
0 0 0

1.31522e-14 -2.17209e-14 0
2.13163e-14 -2.13163e-14 0
0 0 0

-8.56137e-15 -7.32858e-18 0
7.10543e-15 7.10543e-15 0
0 0 0

1.31522e-14 -7.32858e-18 0
2.84217e-14 1.42109e-14 0
0 0 0

-5.30274e-14 1.26617e-14 0
-3.01981e-14 2.66454e-14 0
0 0 0

-2.20935e-14 1.26617e-14 0
-2.84217e-14 9.9476e-14 0
0 0 0

-5.30274e-14 4.35956e-14 0
-2.13163e-14 7.81597e-14 0
0 0 0

-2.20935e-14 4.35956e-14 0
-1.42109e-14 7.10543e-14 0
0 0 0

-6.6681e-16 2.89984e-14 0
1.77636e-14 1.77636e-14 0
0 0 0

9.63113e-15 2.89984e-14 0
-7.10543e-15 2.13163e-14 0
0 0 0

-6.6681e-16 3.92963e-14 0
7.10543e-15 3.55271e-14 0
0 0 0

9.63113e-15 3.92963e-14 0
0 0 0
0 0 0

7.10959e-15 4.98845e-14 0
-3.37508e-14 -4.79616e-14 0
0 0 0

-1.04178e-14 4.98845e-14 0
-7.10543e-14 -9.9476e-14 0
0 0 0

7.10959e-15 3.23571e-14 0
-2.84217e-14 -5.68434e-14 0
0 0 0

-1.04178e-14 3.23571e-14 0
-5.68434e-14 -8.52651e-14 0
0 0 0

-1.7633e-14 1.32773e-14 0
-3.37508e-14 8.88178e-15 0
0 0 0

-1.27773e-14 1.32773e-14 0
-4.9738e-14 7.10543e-15 0
0 0 0

-1.7633e-14 1.81329e-14 0
-5.68434e-14 1.42109e-14 0
0 0 0

-1.27773e-14 1.81329e-14 0
-2.84217e-14 -2.84217e-14 0
0 0 0

-3.02851e-14 6.86969e-14 0
5.32907e-15 1.19016e-13 0
0 0 0

-1.10165e-14 6.86969e-14 0
-4.26326e-14 8.52651e-14 0
0 0 0

-3.02851e-14 8.79655e-14 0
3.55271e-14 1.20792e-13 0
0 0 0

-1.10165e-14 8.79655e-14 0
-2.84217e-14 1.13687e-13 0
0 0 0

9.31895e-17 4.5225e-14 0
-3.73035e-14 1.95399e-14 0
0 0 0

1.65256e-15 4.5225e-14 0
-7.10543e-14 -4.26326e-14 0
0 0 0

9.31895e-17 4.67843e-14 0
-2.13163e-14 -2.13163e-14 0
0 0 0

1.65256e-15 4.67843e-14 0
-5.68434e-14 -2.84217e-14 0
0 0 0

-5.14013e-15 1.53088e-14 0
-5.32907e-14 -8.17124e-14 0
0 0 0

-2.17093e-14 1.53088e-14 0
-4.26326e-14 -7.10543e-14 0
0 0 0

-5.14013e-15 -1.26036e-15 0
-7.10543e-14 -1.42109e-14 0
0 0 0

-2.17093e-14 -1.26036e-15 0
-2.84217e-14 -4.26326e-14 0
0 0 0

-2.57948e-14 2.58244e-14 0
1.24345e-14 4.08562e-14 0
0 0 0

-1.52676e-14 2.58244e-14 0
1.42109e-14 1.42109e-14 0
0 0 0

-2.57948e-14 3.63516e-14 0
7.10543e-15 3.55271e-14 0
0 0 0

-1.52676e-14 3.63516e-14 0
1.42109e-14 1.42109e-14 0
0 0 0

-5.09777e-14 1.247e-13 0
-1.19016e-13 1.08358e-13 0
0 0 0

3.22342e-15 1.247e-13 0
-1.42109e-13 8.52651e-14 0
0 0 0

-5.09777e-14 1.78901e-13 0
-1.56319e-13 9.9476e-14 0
0 0 0

3.22342e-15 1.78901e-13 0
-1.27898e-13 7.10543e-14 0
0 0 0

2.19442e-14 3.61587e-14 0
-9.23706e-14 -3.55271e-14 0
0 0 0

-8.6642e-16 3.61587e-14 0
-7.81597e-14 -2.13163e-14 0
0 0 0

2.19442e-14 1.33481e-14 0
-1.13687e-13 -5.68434e-14 0
0 0 0

-8.6642e-16 1.33481e-14 0
-7.10543e-14 1.42109e-14 0
0 0 0

-1.8008e-14 -1.47978e-14 0
-2.4869e-14 -1.06581e-14 0
0 0 0

-2.85136e-14 -1.47978e-14 0
-7.10543e-14 -1.42109e-14 0
0 0 0

-1.8008e-14 -2.53034e-14 0
-4.26326e-14 1.42109e-14 0
0 0 0

-2.85136e-14 -2.53034e-14 0
-5.68434e-14 0 0
0 0 0

-2.49305e-14 5.16525e-14 0
-4.79616e-14 5.15143e-14 0
0 0 0

-4.85597e-15 5.16525e-14 0
-7.81597e-14 7.10543e-15 0
0 0 0

-2.49305e-14 7.17271e-14 0
-4.26326e-14 1.42109e-14 0
0 0 0

-4.85597e-15 7.17271e-14 0
-4.26326e-14 -1.42109e-14 0
0 0 0

SCALARS active double 1
LOOKUP_TABLE default
1
1
1
1
1
1
1
1
1
1
1
1
1
1
1
1
1
1
1
1
1
1
1
1
1
1
1
1
1
1
1
1
1
1
1
1
1
1
1
1
1
1
1
1
1
1
1
1
1
1
1
1
1
1
1
1
1
1
1
1
1
1
1
1
SCALARS extent double 1
LOOKUP_TABLE default
0.0125
0.0125
0.0125
0.0125
0.0125
0.0125
0.0125
0.0125
0.0125
0.0125
0.0125
0.0125
0.0125
0.0125
0.0125
0.0125
0.0125
0.0125
0.0125
0.0125
0.0125
0.0125
0.0125
0.0125
0.0125
0.0125
0.0125
0.0125
0.0125
0.0125
0.0125
0.0125
0.0125
0.0125
0.0125
0.0125
0.0125
0.0125
0.0125
0.0125
0.0125
0.0125
0.0125
0.0125
0.0125
0.0125
0.0125
0.0125
0.0125
0.0125
0.0125
0.0125
0.0125
0.0125
0.0125
0.0125
0.0125
0.0125
0.0125
0.0125
0.0125
0.0125
0.0125
0.0125
SCALARS pressure double 1
LOOKUP_TABLE default
-1.44494e-10
9.77858e-11
-1.32347e-10
3.09349e-11
9.93746e-11
3.41472e-11
7.78693e-11
2.44447e-12
2.3745e-11
-3.13056e-11
-3.80759e-11
-4.17448e-12
4.78727e-11
-1.0862e-11
-9.80085e-12
-2.82618e-12
-2.11578e-10
3.21352e-11
-1.42858e-10
4.12946e-11
4.08238e-11
5.75965e-12
-1.31921e-11
-4.25904e-12
-5.06811e-11
1.20494e-11
-7.77462e-11
1.73203e-11
6.64844e-11
-2.44107e-11
-2.94598e-11
-3.53608e-11
-1.78931e-10
6.50849e-11
-1.77285e-10
1.26308e-12
2.00354e-11
-1.42729e-11
6.18209e-11
-4.98545e-12
-9.32555e-11
-3.361e-11
-1.061e-11
6.81172e-12
-1.94872e-11
-7.8443e-13
2.49917e-11
-3.92126e-11
-1.43765e-10
5.03124e-11
-1.6869e-10
1.14086e-10
6.76016e-11
2.20984e-11
1.0557e-10
-1.81138e-12
-4.14751e-11
1.8756e-12
1.16074e-11
-2.12149e-11
1.79433e-12
-1.56656e-11
1.50389e-11
1.13907e-11
SCALARS density double 1
LOOKUP_TABLE default
1000
1000
1000
1000
1000
1000
1000
1000
1000
1000
1000
1000
1000
1000
1000
1000
1000
1000
1000
1000
1000
1000
1000
1000
1000
1000
1000
1000
1000
1000
1000
1000
1000
1000
1000
1000
1000
1000
1000
1000
1000
1000
1000
1000
1000
1000
1000
1000
1000
1000
1000
1000
1000
1000
1000
1000
1000
1000
1000
1000
1000
1000
1000
1000
