# vtk DataFile Version 3.0
Frame: 15, Time: 0.267
ASCII
DATASET UNSTRUCTURED_GRID
POINTS 64 double
0.4125 0.0588887 0 
0.4125 0.0838887 0 
0.4375 0.0588887 0 
0.4375 0.0838887 0 
0.4125 0.108889 0 
0.4125 0.133889 0 
0.4375 0.108889 0 
0.4375 0.133889 0 
0.4125 0.158889 0 
0.4125 0.183889 0 
0.4375 0.158889 0 
0.4375 0.183889 0 
0.4125 0.208889 0 
0.4125 0.233889 0 
0.4375 0.208889 0 
0.4375 0.233889 0 
0.4625 0.0588887 0 
0.4625 0.0838887 0 
0.4875 0.0588887 0 
0.4875 0.0838887 0 
0.4625 0.108889 0 
0.4625 0.133889 0 
0.4875 0.108889 0 
0.4875 0.133889 0 
0.4625 0.158889 0 
0.4625 0.183889 0 
0.4875 0.158889 0 
0.4875 0.183889 0 
0.4625 0.208889 0 
0.4625 0.233889 0 
0.4875 0.208889 0 
0.4875 0.233889 0 
0.5125 0.0588887 0 
0.5125 0.0838887 0 
0.5375 0.0588887 0 
0.5375 0.0838887 0 
0.5125 0.108889 0 
0.5125 0.133889 0 
0.5375 0.108889 0 
0.5375 0.133889 0 
0.5125 0.158889 0 
0.5125 0.183889 0 
0.5375 0.158889 0 
0.5375 0.183889 0 
0.5125 0.208889 0 
0.5125 0.233889 0 
0.5375 0.208889 0 
0.5375 0.233889 0 
0.5625 0.0588887 0 
0.5625 0.0838887 0 
0.5875 0.0588887 0 
0.5875 0.0838887 0 
0.5625 0.108889 0 
0.5625 0.133889 0 
0.5875 0.108889 0 
0.5875 0.133889 0 
0.5625 0.158889 0 
0.5625 0.183889 0 
0.5875 0.158889 0 
0.5875 0.183889 0 
0.5625 0.208889 0 
0.5625 0.233889 0 
0.5875 0.208889 0 
0.5875 0.233889 0 
CELLS 64 128
1 0
1 1
1 2
1 3
1 4
1 5
1 6
1 7
1 8
1 9
1 10
1 11
1 12
1 13
1 14
1 15
1 16
1 17
1 18
1 19
1 20
1 21
1 22
1 23
1 24
1 25
1 26
1 27
1 28
1 29
1 30
1 31
1 32
1 33
1 34
1 35
1 36
1 37
1 38
1 39
1 40
1 41
1 42
1 43
1 44
1 45
1 46
1 47
1 48
1 49
1 50
1 51
1 52
1 53
1 54
1 55
1 56
1 57
1 58
1 59
1 60
1 61
1 62
1 63
CELL_TYPES 64
1
1
1
1
1
1
1
1
1
1
1
1
1
1
1
1
1
1
1
1
1
1
1
1
1
1
1
1
1
1
1
1
1
1
1
1
1
1
1
1
1
1
1
1
1
1
1
1
1
1
1
1
1
1
1
1
1
1
1
1
1
1
1
1
POINT_DATA 64
VECTORS displacement double
-9.90206e-17 -0.353611 0 
-1.09417e-16 -0.353611 0 
-1.04203e-16 -0.353611 0 
-1.14048e-16 -0.353611 0 
-1.21667e-16 -0.353611 0 
-1.19959e-16 -0.353611 0 
-1.2304e-16 -0.353611 0 
-1.19978e-16 -0.353611 0 
-1.08671e-16 -0.353611 0 
-9.67804e-17 -0.353611 0 
-1.06925e-16 -0.353611 0 
-9.27315e-17 -0.353611 0 
-7.14175e-17 -0.353611 0 
-5.55744e-17 -0.353611 0 
-7.1029e-17 -0.353611 0 
-5.52547e-17 -0.353611 0 
-1.13687e-16 -0.353611 0 
-1.16745e-16 -0.353611 0 
-1.27474e-16 -0.353611 0 
-1.17507e-16 -0.353611 0 
-1.19002e-16 -0.353611 0 
-1.13822e-16 -0.353611 0 
-1.09556e-16 -0.353611 0 
-1.01489e-16 -0.353611 0 
-1.01132e-16 -0.353611 0 
-8.71549e-17 -0.353611 0 
-9.12929e-17 -0.353611 0 
-8.00505e-17 -0.353611 0 
-6.9285e-17 -0.353611 0 
-5.42367e-17 -0.353611 0 
-6.61856e-17 -0.353611 0 
-5.25204e-17 -0.353611 0 
-1.39405e-16 -0.353611 0 
-1.1864e-16 -0.353611 0 
-1.49482e-16 -0.353611 0 
-1.20145e-16 -0.353611 0 
-1.00811e-16 -0.353611 0 
-8.86582e-17 -0.353611 0 
-9.27685e-17 -0.353611 0 
-7.53296e-17 -0.353611 0 
-8.09255e-17 -0.353611 0 
-7.28101e-17 -0.353611 0 
-7.00303e-17 -0.353611 0 
-6.54336e-17 -0.353611 0 
-6.34559e-17 -0.353611 0 
-5.25509e-17 -0.353611 0 
-6.10958e-17 -0.353611 0 
-5.43282e-17 -0.353611 0 
-1.56898e-16 -0.353611 0 
-1.25023e-16 -0.353611 0 
-1.61653e-16 -0.353611 0 
-1.33274e-16 -0.353611 0 
-9.08093e-17 -0.353611 0 
-6.90051e-17 -0.353611 0 
-9.49335e-17 -0.353611 0 
-6.96848e-17 -0.353611 0 
-6.34147e-17 -0.353611 0 
-5.93135e-17 -0.353611 0 
-6.10788e-17 -0.353611 0 
-5.44499e-17 -0.353611 0 
-5.96351e-17 -0.353611 0 
-5.54215e-17 -0.353611 0 
-5.90741e-17 -0.353611 0 
-5.58307e-17 -0.353611 0 
VECTORS velocity double
-5.39946e-15 -2.62908 0 
8.30349e-16 -2.62908 0 
2.52592e-16 -2.62908 0 
-1.04481e-16 -2.62908 0 
6.13952e-15 -2.62908 0 
6.70736e-15 -2.62908 0 
1.15387e-15 -2.62908 0 
2.42525e-15 -2.62908 0 
-1.15963e-15 -2.62908 0 
-5.93856e-15 -2.62908 0 
-7.9523e-16 -2.62908 0 
-2.2225e-15 -2.62908 0 
-2.10219e-15 -2.62908 0 
3.9393e-15 -2.62908 0 
-7.65375e-16 -2.62908 0 
2.54755e-15 -2.62908 0 
1.5648e-15 -2.62908 0 
-4.95668e-16 -2.62908 0 
-1.46283e-15 -2.62908 0 
-3.43213e-16 -2.62908 0 
-1.04004e-15 -2.62908 0 
-1.18394e-17 -2.62908 0 
-4.42231e-16 -2.62908 0 
-6.039e-16 -2.62908 0 
-6.27844e-16 -2.62908 0 
-4.59657e-16 -2.62908 0 
-6.57473e-16 -2.62908 0 
-6.50039e-16 -2.62908 0 
-6.9248e-17 -2.62908 0 
1.38235e-15 -2.62908 0 
-1.38076e-17 -2.62908 0 
4.43708e-16 -2.62908 0 
-3.50673e-15 -2.62908 0 
-5.15003e-16 -2.62908 0 
-4.56687e-15 -2.62908 0 
-1.01104e-15 -2.62908 0 
-2.62381e-16 -2.62908 0 
-8.32928e-16 -2.62908 0 
-5.00493e-16 -2.62908 0 
-6.98921e-16 -2.62908 0 
-4.338e-16 -2.62908 0 
-6.19265e-16 -2.62908 0 
4.31755e-17 -2.62908 0 
-3.67336e-16 -2.62908 0 
8.73409e-17 -2.62908 0 
-7.1266e-16 -2.62908 0 
2.34198e-16 -2.62908 0 
-2.08675e-15 -2.62908 0 
-1.97697e-15 -2.62908 0 
-1.9862e-15 -2.62908 0 
4.263e-15 -2.62908 0 
-3.44049e-15 -2.62908 0 
-3.3874e-15 -2.62908 0 
-2.83731e-15 -2.62908 0 
-8.92309e-15 -2.62908 0 
-7.24809e-15 -2.62908 0 
5.89989e-16 -2.62908 0 
1.695e-15 -2.62908 0 
1.20664e-15 -2.62908 0 
5.56773e-15 -2.62908 0 
4.5224e-16 -2.62908 0 
-3.03777e-15 -2.62908 0 
7.41468e-16 -2.62908 0 
-3.56572e-15 -2.62908 0 
SCALARS mass double 1
LOOKUP_TABLE default
0.625
0.625
0.625
0.625
0.625
0.625
0.625
0.625
0.625
0.625
0.625
0.625
0.625
0.625
0.625
0.625
0.625
0.625
0.625
0.625
0.625
0.625
0.625
0.625
0.625
0.625
0.625
0.625
0.625
0.625
0.625
0.625
0.625
0.625
0.625
0.625
0.625
0.625
0.625
0.625
0.625
0.625
0.625
0.625
0.625
0.625
0.625
0.625
0.625
0.625
0.625
0.625
0.625
0.625
0.625
0.625
0.625
0.625
0.625
0.625
0.625
0.625
0.625
0.625
SCALARS volume double 1
LOOKUP_TABLE default
0.000625
0.000625
0.000625
0.000625
0.000625
0.000625
0.000625
0.000625
0.000625
0.000625
0.000625
0.000625
0.000625
0.000625
0.000625
0.000625
0.000625
0.000625
0.000625
0.000625
0.000625
0.000625
0.000625
0.000625
0.000625
0.000625
0.000625
0.000625
0.000625
0.000625
0.000625
0.000625
0.000625
0.000625
0.000625
0.000625
0.000625
0.000625
0.000625
0.000625
0.000625
0.000625
0.000625
0.000625
0.000625
0.000625
0.000625
0.000625
0.000625
0.000625
0.000625
0.000625
0.000625
0.000625
0.000625
0.000625
0.000625
0.000625
0.000625
0.000625
0.000625
0.000625
0.000625
0.000625
VECTORS momentum double
-3.37466e-15 -1.64317 0 
5.18968e-16 -1.64318 0 
1.5787e-16 -1.64317 0 
-6.53007e-17 -1.64318 0 
3.8372e-15 -1.64318 0 
4.1921e-15 -1.64318 0 
7.21172e-16 -1.64318 0 
1.51578e-15 -1.64318 0 
-7.24769e-16 -1.64318 0 
-3.7116e-15 -1.64317 0 
-4.97019e-16 -1.64318 0 
-1.38906e-15 -1.64317 0 
-1.31387e-15 -1.64318 0 
2.46206e-15 -1.64317 0 
-4.78359e-16 -1.64318 0 
1.59222e-15 -1.64318 0 
9.78e-16 -1.64318 0 
-3.09793e-16 -1.64317 0 
-9.14272e-16 -1.64318 0 
-2.14508e-16 -1.64318 0 
-6.50027e-16 -1.64318 0 
-7.39961e-18 -1.64318 0 
-2.76394e-16 -1.64318 0 
-3.77438e-16 -1.64318 0 
-3.92403e-16 -1.64318 0 
-2.87286e-16 -1.64317 0 
-4.10921e-16 -1.64318 0 
-4.06274e-16 -1.64317 0 
-4.328e-17 -1.64318 0 
8.63971e-16 -1.64318 0 
-8.62977e-18 -1.64318 0 
2.77317e-16 -1.64318 0 
-2.1917e-15 -1.64318 0 
-3.21877e-16 -1.64317 0 
-2.8543e-15 -1.64318 0 
-6.31899e-16 -1.64317 0 
-1.63988e-16 -1.64318 0 
-5.2058e-16 -1.64318 0 
-3.12808e-16 -1.64318 0 
-4.36826e-16 -1.64318 0 
-2.71125e-16 -1.64318 0 
-3.87041e-16 -1.64317 0 
2.69847e-17 -1.64318 0 
-2.29585e-16 -1.64317 0 
5.45881e-17 -1.64318 0 
-4.45413e-16 -1.64318 0 
1.46374e-16 -1.64318 0 
-1.30422e-15 -1.64318 0 
-1.2356e-15 -1.64318 0 
-1.24138e-15 -1.64318 0 
2.66437e-15 -1.64317 0 
-2.15031e-15 -1.64318 0 
-2.11712e-15 -1.64318 0 
-1.77332e-15 -1.64318 0 
-5.57693e-15 -1.64318 0 
-4.53006e-15 -1.64318 0 
3.68743e-16 -1.64318 0 
1.05937e-15 -1.64317 0 
7.54151e-16 -1.64318 0 
3.47983e-15 -1.64317 0 
2.8265e-16 -1.64318 0 
-1.89861e-15 -1.64318 0 
4.63418e-16 -1.64318 0 
-2.22858e-15 -1.64318 0 
VECTORS body_force double
0 -9.81 0 
0 -9.81 0 
0 -9.81 0 
0 -9.81 0 
0 -9.81 0 
0 -9.81 0 
0 -9.81 0 
0 -9.81 0 
0 -9.81 0 
0 -9.81 0 
0 -9.81 0 
0 -9.81 0 
0 -9.81 0 
0 -9.81 0 
0 -9.81 0 
0 -9.81 0 
0 -9.81 0 
0 -9.81 0 
0 -9.81 0 
0 -9.81 0 
0 -9.81 0 
0 -9.81 0 
0 -9.81 0 
0 -9.81 0 
0 -9.81 0 
0 -9.81 0 
0 -9.81 0 
0 -9.81 0 
0 -9.81 0 
0 -9.81 0 
0 -9.81 0 
0 -9.81 0 
0 -9.81 0 
0 -9.81 0 
0 -9.81 0 
0 -9.81 0 
0 -9.81 0 
0 -9.81 0 
0 -9.81 0 
0 -9.81 0 
0 -9.81 0 
0 -9.81 0 
0 -9.81 0 
0 -9.81 0 
0 -9.81 0 
0 -9.81 0 
0 -9.81 0 
0 -9.81 0 
0 -9.81 0 
0 -9.81 0 
0 -9.81 0 
0 -9.81 0 
0 -9.81 0 
0 -9.81 0 
0 -9.81 0 
0 -9.81 0 
0 -9.81 0 
0 -9.81 0 
0 -9.81 0 
0 -9.81 0 
0 -9.81 0 
0 -9.81 0 
0 -9.81 0 
0 -9.81 0 
TENSORS cauchy_stress double
-8.08672e-11 4.28344e-11 0
4.28344e-11 -1.35538e-10 0
0 0 0

9.06676e-12 2.68328e-11 0
2.68328e-11 6.86538e-11 0
0 0 0

-7.61394e-11 4.31864e-11 0
4.31864e-11 -1.24507e-10 0
0 0 0

9.28614e-12 2.18498e-11 0
2.18498e-11 6.91657e-11 0
0 0 0

7.04799e-11 1.95825e-12 0
1.95825e-12 1.78528e-10 0
0 0 0

1.66233e-11 1.49798e-11 0
1.49798e-11 3.89883e-11 0
0 0 0

1.75715e-11 7.81197e-12 0
7.81197e-12 5.5075e-11 0
0 0 0

-6.28624e-12 9.63724e-12 0
9.63724e-12 -1.44673e-11 0
0 0 0

4.51863e-11 3.24899e-12 0
3.24899e-12 8.75261e-11 0
0 0 0

-1.24496e-11 1.42449e-11 0
1.42449e-11 -7.05764e-11 0
0 0 0

1.82483e-11 1.8168e-11 0
1.8168e-11 2.46708e-11 0
0 0 0

-6.32084e-13 2.59754e-11 0
2.59754e-11 -4.30023e-11 0
0 0 0

-2.88586e-11 2.64894e-11 0
2.64894e-11 -7.13219e-11 0
0 0 0

2.93583e-11 1.03449e-11 0
1.03449e-11 6.52232e-11 0
0 0 0

-3.33923e-11 1.46013e-11 0
1.46013e-11 -8.19004e-11 0
0 0 0

4.20805e-11 1.0227e-11 0
1.0227e-11 9.49083e-11 0
0 0 0

-9.97426e-11 -1.01475e-11 0
-1.01475e-11 -9.13336e-11 0
0 0 0

3.21981e-12 -1.5113e-12 0
-1.5113e-12 1.53309e-11 0
0 0 0

-1.12844e-10 2.27137e-11 0
2.27137e-11 -1.21903e-10 0
0 0 0

2.45393e-11 4.12501e-12 0
4.12501e-12 6.50764e-11 0
0 0 0

9.55582e-11 -2.28551e-12 0
-2.28551e-12 1.26078e-10 0
0 0 0

7.0965e-11 3.15023e-11 0
3.15023e-11 3.90941e-11 0
0 0 0

5.50269e-11 2.04628e-11 0
2.04628e-11 3.15055e-11 0
0 0 0

4.46944e-11 2.92284e-11 0
2.92284e-11 -2.22041e-11 0
0 0 0

7.16236e-11 8.79437e-12 0
8.79437e-12 6.62031e-11 0
0 0 0

-1.08492e-11 1.18312e-11 0
1.18312e-11 -9.81798e-11 0
0 0 0

3.44194e-11 2.91398e-11 0
2.91398e-11 -2.06067e-11 0
0 0 0

1.09907e-11 7.35746e-12 0
7.35746e-12 -4.72201e-11 0
0 0 0

6.52997e-12 7.313e-12 0
7.313e-12 -1.65518e-11 0
0 0 0

7.18711e-12 -1.37331e-11 0
-1.37331e-11 -8.33042e-13 0
0 0 0

-3.19997e-11 2.09015e-11 0
2.09015e-11 -1.06454e-10 0
0 0 0

2.24938e-11 1.56487e-11 0
1.56487e-11 3.48825e-11 0
0 0 0

-9.55975e-11 -1.01368e-11 0
-1.01368e-11 -1.19712e-10 0
0 0 0

-1.00281e-12 1.70942e-12 0
1.70942e-12 1.30912e-11 0
0 0 0

-1.06495e-10 2.39678e-12 0
2.39678e-12 -1.4514e-10 0
0 0 0

-1.13871e-11 2.2895e-11 0
2.2895e-11 -1.11389e-11 0
0 0 0

9.56532e-11 -9.69762e-12 0
-9.69762e-12 1.40704e-10 0
0 0 0

6.39393e-11 -3.44881e-11 0
-3.44881e-11 1.24878e-11 0
0 0 0

7.80695e-11 1.17547e-11 0
1.17547e-11 9.96752e-11 0
0 0 0

4.24053e-11 -2.84507e-11 0
-2.84507e-11 -3.77584e-11 0
0 0 0

5.08927e-11 -1.78818e-11 0
-1.78818e-11 7.00386e-12 0
0 0 0

-2.43956e-11 -4.41864e-12 0
-4.41864e-12 -1.3258e-10 0
0 0 0

5.75344e-11 -2.23194e-11 0
-2.23194e-11 2.25012e-11 0
0 0 0

1.79551e-11 -1.86175e-11 0
-1.86175e-11 -3.37614e-11 0
0 0 0

-1.03637e-11 -9.62677e-12 0
-9.62677e-12 -4.83884e-11 0
0 0 0

4.34971e-12 5.01417e-12 0
5.01417e-12 2.83784e-11 0
0 0 0

-9.969e-12 -1.2159e-11 0
-1.2159e-11 -4.74674e-11 0
0 0 0

9.62915e-12 5.19442e-12 0
5.19442e-12 4.0697e-11 0
0 0 0

-5.81114e-11 -2.87919e-11 0
-2.87919e-11 -8.68196e-11 0
0 0 0

-1.7003e-11 -2.72505e-11 0
-2.72505e-11 4.49545e-11 0
0 0 0

-7.05549e-11 -4.09812e-11 0
-4.09812e-11 -1.15855e-10 0
0 0 0

-8.62513e-12 -1.25316e-11 0
-1.25316e-11 6.45029e-11 0
0 0 0

2.48012e-11 -1.03156e-11 0
-1.03156e-11 1.00168e-10 0
0 0 0

6.20382e-12 -9.73478e-12 0
-9.73478e-12 2.14472e-11 0
0 0 0

5.59598e-11 -7.01454e-12 0
-7.01454e-12 1.72872e-10 0
0 0 0

1.96866e-11 -8.45713e-12 0
-8.45713e-12 5.2907e-11 0
0 0 0

2.57106e-11 -1.79808e-11 0
-1.79808e-11 3.60332e-11 0
0 0 0

-1.22695e-11 -1.00064e-11 0
-1.00064e-11 -7.85117e-11 0
0 0 0

4.25573e-11 6.65487e-12 0
6.65487e-12 7.53421e-11 0
0 0 0

3.62002e-12 -1.92549e-11 0
-1.92549e-11 -4.14362e-11 0
0 0 0

-3.85188e-11 -1.13988e-11 0
-1.13988e-11 -9.5632e-11 0
0 0 0

1.91626e-11 -1.01693e-11 0
-1.01693e-11 4.89096e-11 0
0 0 0

-2.87138e-11 -1.92799e-11 0
-1.92799e-11 -7.27536e-11 0
0 0 0

1.31722e-11 -6.42111e-12 0
-6.42111e-12 3.4932e-11 0
0 0 0

TENSORS velocity_gradient double
4.62611e-14 9.14038e-14 0
-2.84217e-14 -9.9476e-14 0
0 0 0

-8.44751e-15 9.14038e-14 0
0 -1.27898e-13 0
0 0 0

4.62611e-14 3.66952e-14 0
-7.10543e-15 -6.39488e-14 0
0 0 0

-8.44751e-15 3.66952e-14 0
2.84217e-14 -1.27898e-13 0
0 0 0

-3.57918e-14 -7.92598e-15 0
3.55271e-14 2.13163e-14 0
0 0 0

-3.11047e-14 -7.92598e-15 0
2.84217e-14 0 0
0 0 0

-3.57918e-14 -3.23892e-15 0
3.55271e-14 -7.10543e-15 0
0 0 0

-3.11047e-14 -3.23892e-15 0
0 -1.42109e-14 0
0 0 0

-1.35801e-14 -7.16252e-14 0
-7.10543e-15 1.06581e-13 0
0 0 0

1.89716e-14 -7.16252e-14 0
-2.84217e-14 1.13687e-13 0
0 0 0

-1.35801e-14 -3.90735e-14 0
2.13163e-14 6.39488e-14 0
0 0 0

1.89716e-14 -3.90735e-14 0
-4.26326e-14 9.9476e-14 0
0 0 0

2.11228e-14 8.62379e-14 0
-7.63833e-14 -7.63833e-14 0
0 0 0

-1.23111e-14 8.62379e-14 0
-7.10543e-14 -7.10543e-14 0
0 0 0

2.11228e-14 5.2804e-14 0
-4.9738e-14 -3.55271e-14 0
0 0 0

-1.23111e-14 5.2804e-14 0
-5.68434e-14 -5.68434e-14 0
0 0 0

-3.3236e-14 1.17936e-14 0
3.19744e-14 -5.32907e-14 0
0 0 0

-2.83305e-14 1.17936e-14 0
5.68434e-14 -7.10543e-14 0
0 0 0

-3.3236e-14 1.66991e-14 0
2.84217e-14 -8.52651e-14 0
0 0 0

-2.83305e-14 1.66991e-14 0
4.26326e-14 -7.10543e-14 0
0 0 0

-2.45485e-14 3.38036e-16 0
3.37508e-14 5.32907e-15 0
0 0 0

-2.20817e-14 3.38036e-16 0
4.26326e-14 2.84217e-14 0
0 0 0

-2.45485e-14 2.80488e-15 0
2.84217e-14 1.42109e-14 0
0 0 0

-2.20817e-14 2.80488e-15 0
2.84217e-14 0 0
0 0 0

-1.36835e-14 -1.51271e-14 0
5.32907e-14 1.10134e-13 0
0 0 0

1.65767e-15 -1.51271e-14 0
6.39488e-14 4.9738e-14 0
0 0 0

-1.36835e-14 2.14002e-16 0
7.10543e-14 4.26326e-14 0
0 0 0

1.65767e-15 2.14002e-16 0
8.52651e-14 4.26326e-14 0
0 0 0

1.10875e-15 2.65125e-14 0
5.50671e-14 -5.86198e-14 0
0 0 0

-1.80403e-14 2.65125e-14 0
1.42109e-14 -1.27898e-13 0
0 0 0

1.10875e-15 7.3635e-15 0
7.10543e-14 -7.10543e-14 0
0 0 0

-1.80403e-14 7.3635e-15 0
2.84217e-14 -8.52651e-14 0
0 0 0

-1.34614e-14 1.32295e-14 0
-2.84217e-14 -2.84217e-14 0
0 0 0

-2.53061e-14 1.32295e-14 0
-2.84217e-14 -7.10543e-14 0
0 0 0

-1.34614e-14 1.38477e-15 0
-2.13163e-14 -1.49214e-13 0
0 0 0

-2.53061e-14 1.38477e-15 0
-2.84217e-14 -8.52651e-14 0
0 0 0

-2.68258e-14 9.32144e-15 0
-1.59872e-14 4.08562e-14 0
0 0 0

-1.62595e-14 9.32144e-15 0
-4.9738e-14 3.55271e-14 0
0 0 0

-2.68258e-14 1.98877e-14 0
-3.55271e-14 9.23706e-14 0
0 0 0

-1.62595e-14 1.98877e-14 0
-2.84217e-14 1.42109e-14 0
0 0 0

-6.16482e-15 1.26559e-14 0
-1.77636e-14 5.32907e-14 0
0 0 0

3.3779e-15 1.26559e-14 0
-2.84217e-14 7.10543e-14 0
0 0 0

-6.16482e-15 2.21987e-14 0
-3.55271e-14 1.20792e-13 0
0 0 0

3.3779e-15 2.21987e-14 0
-1.42109e-14 7.10543e-14 0
0 0 0

5.19353e-16 -1.08984e-14 0
8.88178e-15 -1.04805e-13 0
0 0 0

-1.68555e-14 -1.08984e-14 0
2.13163e-14 -9.23706e-14 0
0 0 0

5.19353e-16 -2.82733e-14 0
-7.10543e-15 -1.49214e-13 0
0 0 0

-1.68555e-14 -2.82733e-14 0
-4.26326e-14 -9.9476e-14 0
0 0 0

5.22625e-14 -3.51985e-14 0
4.79616e-14 -1.22569e-13 0
0 0 0

-9.05927e-15 -3.51985e-14 0
0 -1.13687e-13 0
0 0 0

5.22625e-14 -9.65203e-14 0
1.42109e-14 -9.9476e-14 0
0 0 0

-9.05927e-15 -9.65203e-14 0
0 -1.56319e-13 0
0 0 0

-3.85294e-14 2.90777e-14 0
-5.32907e-15 5.15143e-14 0
0 0 0

-3.07157e-14 2.90777e-14 0
-1.42109e-14 7.10543e-14 0
0 0 0

-3.85294e-14 3.68915e-14 0
-2.13163e-14 7.10543e-15 0
0 0 0

-3.07157e-14 3.68915e-14 0
0 2.84217e-14 0
0 0 0

-1.25283e-14 4.21351e-14 0
-3.90799e-14 1.03029e-13 0
0 0 0

1.78019e-14 4.21351e-14 0
0 5.68434e-14 0
0 0 0

-1.25283e-14 7.24653e-14 0
0 9.9476e-14 0
0 0 0

1.78019e-14 7.24653e-14 0
0 1.13687e-13 0
0 0 0

2.2054e-14 -5.00975e-14 0
7.28306e-14 -6.92779e-14 0
0 0 0

-4.21973e-15 -5.00975e-14 0
4.9738e-14 -9.23706e-14 0
0 0 0

2.2054e-14 -7.63712e-14 0
5.68434e-14 -1.42109e-13 0
0 0 0

-4.21973e-15 -7.63712e-14 0
4.26326e-14 -1.13687e-13 0
0 0 0

SCALARS active double 1
LOOKUP_TABLE default
1
1
1
1
1
1
1
1
1
1
1
1
1
1
1
1
1
1
1
1
1
1
1
1
1
1
1
1
1
1
1
1
1
1
1
1
1
1
1
1
1
1
1
1
1
1
1
1
1
1
1
1
1
1
1
1
1
1
1
1
1
1
1
1
SCALARS extent double 1
LOOKUP_TABLE default
0.0125
0.0125
0.0125
0.0125
0.0125
0.0125
0.0125
0.0125
0.0125
0.0125
0.0125
0.0125
0.0125
0.0125
0.0125
0.0125
0.0125
0.0125
0.0125
0.0125
0.0125
0.0125
0.0125
0.0125
0.0125
0.0125
0.0125
0.0125
0.0125
0.0125
0.0125
0.0125
0.0125
0.0125
0.0125
0.0125
0.0125
0.0125
0.0125
0.0125
0.0125
0.0125
0.0125
0.0125
0.0125
0.0125
0.0125
0.0125
0.0125
0.0125
0.0125
0.0125
0.0125
0.0125
0.0125
0.0125
0.0125
0.0125
0.0125
0.0125
0.0125
0.0125
0.0125
0.0125
SCALARS pressure double 1
LOOKUP_TABLE default
1.08203e-10
-3.88603e-11
1.00323e-10
-3.92259e-11
-1.24504e-10
-2.78058e-11
-3.63233e-11
1.03768e-11
-6.63562e-11
4.1513e-11
-2.14595e-11
2.18172e-11
5.00903e-11
-4.72907e-11
5.76463e-11
-6.84944e-11
9.55381e-11
-9.27536e-12
1.17374e-10
-4.48078e-11
-1.10818e-10
-5.50295e-11
-4.32662e-11
-1.12451e-11
-6.89134e-11
5.45145e-11
-6.90635e-12
1.81147e-11
5.01092e-12
-3.17703e-12
6.9227e-11
-2.86881e-11
1.07655e-10
-6.04417e-12
1.25817e-10
1.1263e-11
-1.18179e-10
-3.82135e-11
-8.88724e-11
-2.32345e-12
-2.89483e-11
7.84877e-11
-4.00178e-11
7.90316e-12
2.93761e-11
-1.6364e-11
2.87182e-11
-2.51631e-11
7.24655e-11
-1.39757e-11
9.32048e-11
-2.79389e-11
-6.24847e-11
-1.38255e-11
-1.14416e-10
-3.62968e-11
-3.08719e-11
4.53906e-11
-5.89497e-11
1.89081e-11
6.70754e-11
-3.40361e-11
5.07337e-11
-2.40521e-11
SCALARS density double 1
LOOKUP_TABLE default
1000
1000
1000
1000
1000
1000
1000
1000
1000
1000
1000
1000
1000
1000
1000
1000
1000
1000
1000
1000
1000
1000
1000
1000
1000
1000
1000
1000
1000
1000
1000
1000
1000
1000
1000
1000
1000
1000
1000
1000
1000
1000
1000
1000
1000
1000
1000
1000
1000
1000
1000
1000
1000
1000
1000
1000
1000
1000
1000
1000
1000
1000
1000
1000
