# vtk DataFile Version 3.0
Frame: 54, Time: 0.917
ASCII
DATASET UNSTRUCTURED_GRID
POINTS 64 double
0.386174 0.35896 0 
0.410279 0.34989 0 
0.376939 0.3319 0 
0.402445 0.32328 0 
0.433954 0.340394 0 
0.457948 0.331309 0 
0.426637 0.315757 0 
0.451818 0.30573 0 
0.482862 0.322597 0 
0.507634 0.312053 0 
0.476068 0.296694 0 
0.501136 0.288073 0 
0.531819 0.303768 0 
0.556798 0.296771 0 
0.525484 0.279813 0 
0.55067 0.271033 0 
0.369459 0.308633 0 
0.393812 0.299181 0 
0.359751 0.284418 0 
0.386191 0.275626 0 
0.417833 0.290995 0 
0.44212 0.282342 0 
0.409049 0.266983 0 
0.433696 0.258053 0 
0.466961 0.272818 0 
0.490559 0.264515 0 
0.45865 0.24982 0 
0.482217 0.240045 0 
0.515895 0.256534 0 
0.540419 0.247156 0 
0.507367 0.232176 0 
0.531868 0.223192 0 
0.352845 0.259911 0 
0.377447 0.250063 0 
0.346132 0.234915 0 
0.369958 0.22468 0 
0.401444 0.24271 0 
0.426215 0.23282 0 
0.395238 0.21716 0 
0.420105 0.208941 0 
0.451056 0.223926 0 
0.475605 0.215497 0 
0.442843 0.199418 0 
0.467125 0.191834 0 
0.499662 0.206872 0 
0.523895 0.198528 0 
0.491046 0.182422 0 
0.514595 0.174117 0 
0.338534 0.2099 0 
0.362745 0.200696 0 
0.330573 0.18557 0 
0.355867 0.176726 0 
0.387923 0.19366 0 
0.412461 0.184524 0 
0.37975 0.169838 0 
0.401941 0.158638 0 
0.43578 0.175518 0 
0.459151 0.167763 0 
0.426359 0.148899 0 
0.451286 0.141326 0 
0.484622 0.157691 0 
0.508719 0.149827 0 
0.474867 0.132388 0 
0.501402 0.125303 0 
CELLS 64 128
1 0
1 1
1 2
1 3
1 4
1 5
1 6
1 7
1 8
1 9
1 10
1 11
1 12
1 13
1 14
1 15
1 16
1 17
1 18
1 19
1 20
1 21
1 22
1 23
1 24
1 25
1 26
1 27
1 28
1 29
1 30
1 31
1 32
1 33
1 34
1 35
1 36
1 37
1 38
1 39
1 40
1 41
1 42
1 43
1 44
1 45
1 46
1 47
1 48
1 49
1 50
1 51
1 52
1 53
1 54
1 55
1 56
1 57
1 58
1 59
1 60
1 61
1 62
1 63
CELL_TYPES 64
1
1
1
1
1
1
1
1
1
1
1
1
1
1
1
1
1
1
1
1
1
1
1
1
1
1
1
1
1
1
1
1
1
1
1
1
1
1
1
1
1
1
1
1
1
1
1
1
1
1
1
1
1
1
1
1
1
1
1
1
1
1
1
1
POINT_DATA 64
VECTORS displacement double
-0.126326 -0.25354 0 
-0.102221 -0.28761 0 
-0.160561 -0.2806 0 
-0.135055 -0.31422 0 
-0.0785458 -0.322106 0 
-0.0545516 -0.356191 0 
-0.110863 -0.346743 0 
-0.0856824 -0.38177 0 
-0.0296376 -0.389903 0 
-0.00486601 -0.425447 0 
-0.061432 -0.415806 0 
-0.0363639 -0.449427 0 
0.0193193 -0.458732 0 
0.0442985 -0.490729 0 
-0.0120165 -0.482687 0 
0.0131697 -0.516467 0 
-0.193041 -0.303867 0 
-0.168688 -0.338319 0 
-0.227749 -0.328082 0 
-0.201309 -0.361874 0 
-0.144667 -0.371505 0 
-0.12038 -0.405158 0 
-0.178451 -0.395517 0 
-0.153804 -0.429447 0 
-0.0955393 -0.439682 0 
-0.0719408 -0.472985 0 
-0.12885 -0.46268 0 
-0.105283 -0.497455 0 
-0.0466046 -0.505966 0 
-0.0220814 -0.540344 0 
-0.0801333 -0.530324 0 
-0.0556324 -0.564308 0 
-0.259655 -0.352589 0 
-0.235053 -0.387437 0 
-0.291368 -0.377585 0 
-0.267542 -0.41282 0 
-0.211056 -0.41979 0 
-0.186285 -0.45468 0 
-0.242262 -0.44534 0 
-0.217395 -0.478559 0 
-0.161444 -0.488574 0 
-0.136895 -0.522003 0 
-0.194657 -0.513082 0 
-0.170375 -0.545666 0 
-0.112838 -0.555628 0 
-0.0886055 -0.588972 0 
-0.146454 -0.580078 0 
-0.122905 -0.613383 0 
-0.323966 -0.4026 0 
-0.299755 -0.436804 0 
-0.356927 -0.42693 0 
-0.331633 -0.460774 0 
-0.274577 -0.46884 0 
-0.250039 -0.502976 0 
-0.30775 -0.492662 0 
-0.285559 -0.528862 0 
-0.22672 -0.536982 0 
-0.203349 -0.569737 0 
-0.261141 -0.563601 0 
-0.236214 -0.596174 0 
-0.177878 -0.604809 0 
-0.153781 -0.637673 0 
-0.212633 -0.630112 0 
-0.186098 -0.662197 0 
VECTORS velocity double
-0.247201 0.234552 0 
0.108718 0.193839 0 
-0.0395321 -0.0408518 0 
-0.234224 0.308631 0 
0.105873 -0.00523818 0 
-0.0789041 0.392926 0 
-0.178401 0.0912973 0 
-0.0636369 0.0801627 0 
-0.198627 0.277773 0 
0.303919 0.361992 0 
-0.315177 0.73772 0 
0.0159408 0.265075 0 
-0.357188 0.435199 0 
-0.0713825 0.50985 0 
0.0614606 0.0578352 0 
0.313481 0.689109 0 
0.173225 -0.113339 0 
0.0195027 -0.00794458 0 
0.134576 -0.35112 0 
-0.181342 0.368732 0 
-0.393694 0.390534 0 
0.126252 0.0196707 0 
-0.472038 0.247531 0 
-0.0507116 0.442327 0 
-0.0944842 0.4089 0 
-0.0296391 0.489406 0 
-0.267918 0.501589 0 
0.0902231 0.380272 0 
-0.0360164 0.179482 0 
-0.0155486 0.437917 0 
0.174575 0.485452 0 
-0.112165 0.620267 0 
-0.386343 -0.916102 0 
-0.0264924 0.229176 0 
0.0290755 -0.774293 0 
0.24658 0.19794 0 
0.0725831 -0.390031 0 
0.358456 -0.0736515 0 
0.270698 0.158893 0 
0.0973621 0.339664 0 
0.45058 0.351992 0 
0.485031 0.363258 0 
0.120133 -0.0658034 0 
0.482826 0.471937 0 
0.0349584 0.0329507 0 
0.475244 0.395854 0 
0.0103409 0.266862 0 
0.291423 0.381376 0 
-0.0570022 -0.882277 0 
0.21492 0.436598 0 
0.530912 -1.51342 0 
0.912195 -0.325067 0 
0.687874 0.323135 0 
0.0849412 -0.0698878 0 
1.66201 0.485078 0 
0.538542 -0.0773641 0 
0.279766 -0.000368548 0 
0.505309 0.650181 0 
0.433317 -0.1387 0 
0.658826 0.282899 0 
0.159076 -0.0288898 0 
0.624054 0.293965 0 
0.0968468 0.370046 0 
0.450313 0.0563353 0 
SCALARS mass double 1
LOOKUP_TABLE default
0.625
0.625
0.625
0.625
0.625
0.625
0.625
0.625
0.625
0.625
0.625
0.625
0.625
0.625
0.625
0.625
0.625
0.625
0.625
0.625
0.625
0.625
0.625
0.625
0.625
0.625
0.625
0.625
0.625
0.625
0.625
0.625
0.625
0.625
0.625
0.625
0.625
0.625
0.625
0.625
0.625
0.625
0.625
0.625
0.625
0.625
0.625
0.625
0.625
0.625
0.625
0.625
0.625
0.625
0.625
0.625
0.625
0.625
0.625
0.625
0.625
0.625
0.625
0.625
SCALARS volume double 1
LOOKUP_TABLE default
0.000633633
0.000624812
0.000631598
0.00063252
0.000637553
0.000615402
0.00063595
0.000601481
0.000643196
0.000618808
0.00064378
0.00062493
0.000622889
0.000624879
0.000605962
0.000631086
0.000623921
0.000608172
0.00063349
0.000630974
0.00061699
0.000652438
0.000643752
0.000613426
0.000607506
0.000629055
0.000615483
0.000625124
0.000640079
0.00061119
0.000634657
0.00060667
0.000643565
0.00063537
0.000616559
0.0006483
0.000597083
0.000654756
0.000632417
0.000582313
0.000639693
0.000635725
0.000606632
0.000620306
0.000609041
0.000627816
0.000614547
0.000634202
0.00063309
0.000591368
0.00061473
0.000683856
0.000586919
0.000661905
0.000561229
0.000646677
0.000601794
0.000641003
0.000628966
0.000608096
0.000633669
0.000634921
0.000612808
0.000628649
VECTORS momentum double
-0.154501 0.146595 0 
0.0679484 0.121149 0 
-0.0247075 -0.0255324 0 
-0.14639 0.192894 0 
0.0661709 -0.00327386 0 
-0.049315 0.245579 0 
-0.111501 0.0570608 0 
-0.039773 0.0501017 0 
-0.124142 0.173608 0 
0.18995 0.226245 0 
-0.196985 0.461075 0 
0.00996303 0.165672 0 
-0.223242 0.272 0 
-0.0446141 0.318657 0 
0.0384129 0.036147 0 
0.195926 0.430693 0 
0.108265 -0.0708367 0 
0.0121892 -0.00496536 0 
0.0841098 -0.21945 0 
-0.113339 0.230458 0 
-0.246058 0.244084 0 
0.0789073 0.0122942 0 
-0.295024 0.154707 0 
-0.0316948 0.276454 0 
-0.0590526 0.255563 0 
-0.0185244 0.305879 0 
-0.167449 0.313493 0 
0.0563895 0.23767 0 
-0.0225103 0.112176 0 
-0.00971788 0.273698 0 
0.109109 0.303408 0 
-0.0701034 0.387667 0 
-0.241464 -0.572564 0 
-0.0165578 0.143235 0 
0.0181722 -0.483933 0 
0.154113 0.123712 0 
0.0453644 -0.24377 0 
0.224035 -0.0460322 0 
0.169186 0.0993082 0 
0.0608513 0.21229 0 
0.281612 0.219995 0 
0.303144 0.227036 0 
0.0750831 -0.0411271 0 
0.301766 0.29496 0 
0.021849 0.0205942 0 
0.297028 0.247409 0 
0.00646308 0.166789 0 
0.182139 0.23836 0 
-0.0356264 -0.551423 0 
0.134325 0.272874 0 
0.33182 -0.945889 0 
0.570122 -0.203167 0 
0.429921 0.20196 0 
0.0530882 -0.0436799 0 
1.03876 0.303174 0 
0.336589 -0.0483526 0 
0.174854 -0.000230342 0 
0.315818 0.406363 0 
0.270823 -0.0866873 0 
0.411766 0.176812 0 
0.0994226 -0.0180561 0 
0.390034 0.183728 0 
0.0605292 0.231279 0 
0.281446 0.0352095 0 
VECTORS body_force double
0 -9.81 0 
0 -9.81 0 
0 -9.81 0 
0 -9.81 0 
0 -9.81 0 
0 -9.81 0 
0 -9.81 0 
0 -9.81 0 
0 -9.81 0 
0 -9.81 0 
0 -9.81 0 
0 -9.81 0 
0 -9.81 0 
0 -9.81 0 
0 -9.81 0 
0 -9.81 0 
0 -9.81 0 
0 -9.81 0 
0 -9.81 0 
0 -9.81 0 
0 -9.81 0 
0 -9.81 0 
0 -9.81 0 
0 -9.81 0 
0 -9.81 0 
0 -9.81 0 
0 -9.81 0 
0 -9.81 0 
0 -9.81 0 
0 -9.81 0 
0 -9.81 0 
0 -9.81 0 
0 -9.81 0 
0 -9.81 0 
0 -9.81 0 
0 -9.81 0 
0 -9.81 0 
0 -9.81 0 
0 -9.81 0 
0 -9.81 0 
0 -9.81 0 
0 -9.81 0 
0 -9.81 0 
0 -9.81 0 
0 -9.81 0 
0 -9.81 0 
0 -9.81 0 
0 -9.81 0 
0 -9.81 0 
0 -9.81 0 
0 -9.81 0 
0 -9.81 0 
0 -9.81 0 
0 -9.81 0 
0 -9.81 0 
0 -9.81 0 
0 -9.81 0 
0 -9.81 0 
0 -9.81 0 
0 -9.81 0 
0 -9.81 0 
0 -9.81 0 
0 -9.81 0 
0 -9.81 0 
TENSORS cauchy_stress double
1234.78 -417.276 0
-417.276 1403.49 0
0 0 0

633.162 1642.42 0
1642.42 -691.089 0
0 0 0

987.518 -1017.83 0
-1017.83 1031.9 0
0 0 0

393.869 -14.225 0
-14.225 1906.07 0
0 0 0

2433.56 -538.941 0
-538.941 1390.69 0
0 0 0

-2256.01 510.236 0
510.236 -720.247 0
0 0 0

934.961 -1196.75 0
-1196.75 2405.21 0
0 0 0

-2747.01 -506.217 0
-506.217 -4629.41 0
0 0 0

4570.66 -1549.79 0
-1549.79 948.136 0
0 0 0

-1150.49 -142.205 0
-142.205 -764.143 0
0 0 0

2455.74 -1897.69 0
-1897.69 3237.72 0
0 0 0

-554.666 -2636.09 0
-2636.09 533.036 0
0 0 0

269.209 893.127 0
893.127 -919.963 0
0 0 0

-76.6978 -305.429 0
-305.429 39.6061 0
0 0 0

-1574.75 -2051.5 0
-2051.5 -4374.25 0
0 0 0

779.634 693.442 0
693.442 1083.88 0
0 0 0

-583.808 2768.47 0
2768.47 251.602 0
0 0 0

-1688.93 684.297 0
684.297 -3559.77 0
0 0 0

3912.6 578.339 0
578.339 -1317.74 0
0 0 0

-464.155 -625.055 0
-625.055 2293.46 0
0 0 0

-2169.19 460.686 0
460.686 -311.363 0
0 0 0

3758.16 272.271 0
272.271 4504.17 0
0 0 0

1316.95 -4259.16 0
-4259.16 4368.02 0
0 0 0

-930.404 1607.08 0
1607.08 -2664.34 0
0 0 0

-1312.73 -2106.07 0
-2106.07 -4146.88 0
0 0 0

1953.99 1646.46 0
1646.46 -710.405 0
0 0 0

-3596.51 -1845.16 0
-1845.16 645.563 0
0 0 0

586.789 -1877.36 0
-1877.36 -548.688 0
0 0 0

3271.92 830.611 0
830.611 1312.66 0
0 0 0

-2168.52 -2002.82 0
-2002.82 -2128.32 0
0 0 0

3986.75 550.104 0
550.104 -1038.09 0
0 0 0

-3345.14 -1050.98 0
-1050.98 -2379.3 0
0 0 0

3069.51 2903.7 0
2903.7 2559.69 0
0 0 0

-1213.65 -1921.89 0
-1921.89 4378.32 0
0 0 0

-1990.39 -2806.74 0
-2806.74 -624.385 0
0 0 0

3732.02 322.036 0
322.036 3306.66 0
0 0 0

-5476.11 -2064.98 0
-2064.98 -3311.35 0
0 0 0

5872.31 -6702.22 0
-6702.22 3072.21 0
0 0 0

1877.1 1073.81 0
1073.81 391.518 0
0 0 0

-11439.7 -3562.69 0
-3562.69 -2164.68 0
0 0 0

688.973 771.725 0
771.725 3779.68 0
0 0 0

-211.319 -5032.34 0
-5032.34 3483.34 0
0 0 0

-3909.93 -2289.94 0
-2289.94 -1826.32 0
0 0 0

-1094.06 -1692.39 0
-1692.39 -355.728 0
0 0 0

-4488.51 -1478.11 0
-1478.11 -485.684 0
0 0 0

1285.24 -1623.2 0
-1623.2 -420.649 0
0 0 0

-1552.92 2628.5 0
2628.5 -1690.7 0
0 0 0

2515.23 -1532.66 0
-1532.66 295.424 0
0 0 0

-48.1068 477.627 0
477.627 2521.43 0
0 0 0

-4226.67 -2726.62 0
-2726.62 -6410.48 0
0 0 0

-1946.82 -2508.48 0
-2508.48 -1239.3 0
0 0 0

10138.3 5773.92 0
5773.92 7168.56 0
0 0 0

-6466.39 271.82 0
271.82 -5622.88 0
0 0 0

3580.28 -1985.61 0
-1985.61 7452.38 0
0 0 0

-12224.4 911.643 0
911.643 -8472.28 0
0 0 0

3285.51 -1393.13 0
-1393.13 3271.33 0
0 0 0

-7261.3 737.931 0
737.931 -14.8131 0
0 0 0

2333.57 -1399.09 0
-1399.09 2528.51 0
0 0 0

1119.17 626.331 0
626.331 97.3964 0
0 0 0

-5348.3 14.8556 0
14.8556 75.3474 0
0 0 0

1695.74 -593.404 0
-593.404 953.385 0
0 0 0

442.538 -909.99 0
-909.99 2586.24 0
0 0 0

-1272.63 10.4139 0
10.4139 -2515.92 0
0 0 0

-325.252 -871.869 0
-871.869 1444.73 0
0 0 0

TENSORS velocity_gradient double
-0.0253388 -2.41183 0
2.21997 0.233237 0
0 0 0

0.608238 -0.803997 0
0.643106 0.269275 0
0 0 0

-0.82236 -0.306065 0
3.7358 2.78024 0
0 0 0

-0.173536 1.15635 0
2.45048 0.849097 0
0 0 0

0.558678 1.64995 0
0.944848 -0.44392 0
0 0 0

0.597806 1.65878 0
2.97094 -0.964213 0
0 0 0

0.250959 1.55907 0
1.89158 -0.16433 0
0 0 0

0.826366 1.43182 0
2.53071 -0.951391 0
0 0 0

0.807427 1.06488 0
2.86746 -0.671043 0
0 0 0

-0.0892295 0.234039 0
1.52339 -0.218453 0
0 0 0

1.20519 -1.83568 0
2.45714 -0.70972 0
0 0 0

0.690828 -2.16913 0
1.68463 -0.0502448 0
0 0 0

0.273838 -1.26434 0
1.32102 0.34652 0
0 0 0

0.180381 -1.81434 0
1.87181 -0.381564 0
0 0 0

0.331354 -1.88093 0
1.46194 -0.305023 0
0 0 0

0.571656 -1.74742 0
1.86888 -0.668956 0
0 0 0

-2.36451 -0.805749 0
5.66665 3.40587 0
0 0 0

-2.52098 -0.638343 0
6.36729 1.36092 0
0 0 0

-2.0454 0.261391 0
7.46388 3.73213 0
0 0 0

-1.5225 -1.28193 0
8.09 1.88418 0
0 0 0

0.259604 -2.48087 0
2.94652 0.0315349 0
0 0 0

0.453093 -3.01812 0
3.38136 -1.17585 0
0 0 0

0.790665 -2.28515 0
4.14 0.471377 0
0 0 0

0.990859 -2.83008 0
4.5899 -0.753275 0
0 0 0

0.769631 -2.83983 0
1.69416 -1.00221 0
0 0 0

0.596966 -2.35233 0
1.41769 -0.22165 0
0 0 0

0.22091 -4.02042 0
1.06316 0.269627 0
0 0 0

-0.130752 -3.88364 0
1.00735 1.45402 0
0 0 0

0.0796473 -1.99428 0
1.82435 -0.143724 0
0 0 0

-0.0213933 -2.46787 0
1.98587 0.32855 0
0 0 0

-0.180016 -3.05167 0
2.26007 1.21647 0
0 0 0

-0.276029 -2.79148 0
2.42915 0.758253 0
0 0 0

0.252895 0.469464 0
9.95731 4.18879 0
0 0 0

-0.241944 -4.09501 0
9.53878 0.495679 0
0 0 0

1.59796 -7.87749 0
13.7615 -1.90703 0
0 0 0

-0.242027 -7.70195 0
8.92092 -1.92875 0
0 0 0

0.478705 -7.29704 0
6.55141 -0.684895 0
0 0 0

0.397795 -6.29465 0
4.13989 0.482609 0
0 0 0

-0.305707 -7.46518 0
8.09768 -0.961117 0
0 0 0

-0.653745 -6.57086 0
2.9883 0.180128 0
0 0 0

-0.460578 -5.20836 0
2.21859 1.487 0
0 0 0

-1.16574 -4.16727 0
1.14682 1.49224 0
0 0 0

-1.22493 -3.82917 0
2.82521 0.773364 0
0 0 0

-1.58672 -2.28594 0
0.933906 0.710645 0
0 0 0

-1.03571 -3.24163 0
1.89907 1.31809 0
0 0 0

-0.510936 -2.99617 0
2.90047 1.21684 0
0 0 0

-1.33958 -2.91386 0
0.599116 1.56126 0
0 0 0

-0.623185 -3.09872 0
3.41352 1.58451 0
0 0 0

1.90772 -7.90962 0
18.3361 -0.999184 0
0 0 0

-0.8444 -9.61224 0
7.91251 -1.61737 0
0 0 0

5.31695 -9.02355 0
22.3982 1.98164 0
0 0 0

-3.08714 -12.9832 0
7.78403 -1.21793 0
0 0 0

-1.4511 -8.11838 0
7.50665 1.0234 0
0 0 0

-2.38553 -5.11724 0
3.13563 1.50178 0
0 0 0

-5.18437 -9.44024 0
5.75854 0.40444 0
0 0 0

-5.53488 -6.21493 0
4.41307 1.6228 0
0 0 0

-3.16791 -3.10418 0
3.46778 0.647158 0
0 0 0

-0.955612 -2.07508 0
0.0789665 0.425003 0
0 0 0

-4.88796 -0.0596263 0
4.27646 0.750495 0
0 0 0

-2.21868 1.03763 0
1.55205 0.734994 0
0 0 0

-0.691626 -2.7433 0
-0.278646 1.33022 0
0 0 0

-0.534376 -1.75132 0
3.86414 1.16766 0
0 0 0

-0.119773 0.418787 0
-0.525345 0.73233 0
0 0 0

0.344733 -0.25274 0
2.09023 0.7027 0
0 0 0

SCALARS active double 1
LOOKUP_TABLE default
1
1
1
1
1
1
1
1
1
1
1
1
1
1
1
1
1
1
1
1
1
1
1
1
1
1
1
1
1
1
1
1
1
1
1
1
1
1
1
1
1
1
1
1
1
1
1
1
1
1
1
1
1
1
1
1
1
1
1
1
1
1
1
1
SCALARS extent double 1
LOOKUP_TABLE default
0.0125
0.0125
0.0125
0.0125
0.0125
0.0125
0.0125
0.0125
0.0125
0.0125
0.0125
0.0125
0.0125
0.0125
0.0125
0.0125
0.0125
0.0125
0.0125
0.0125
0.0125
0.0125
0.0125
0.0125
0.0125
0.0125
0.0125
0.0125
0.0125
0.0125
0.0125
0.0125
0.0125
0.0125
0.0125
0.0125
0.0125
0.0125
0.0125
0.0125
0.0125
0.0125
0.0125
0.0125
0.0125
0.0125
0.0125
0.0125
0.0125
0.0125
0.0125
0.0125
0.0125
0.0125
0.0125
0.0125
0.0125
0.0125
0.0125
0.0125
0.0125
0.0125
0.0125
0.0125
SCALARS pressure double 1
LOOKUP_TABLE default
-1319.13
28.9634
-1009.71
-1149.97
-1912.12
1488.13
-1670.08
3688.21
-2759.4
957.318
-2846.73
10.8153
325.377
18.5458
2974.5
-931.757
166.103
2624.35
-1297.43
-914.651
1240.28
-4131.16
-2842.49
1797.37
2729.81
-621.79
1475.47
-19.0502
-2292.29
2148.42
-1474.33
2862.22
-2814.6
-1582.34
1307.39
-3519.34
4393.73
-4472.26
-1134.31
6802.21
-2234.33
-1636.01
2868.13
724.893
2487.1
-432.294
1621.81
-1405.33
-1236.66
5318.57
1593.06
-8653.43
6044.63
-5516.33
10348.4
-3278.42
3638.05
-2431.04
-608.285
2636.47
-1324.56
-1514.39
1894.27
-559.737
SCALARS density double 1
LOOKUP_TABLE default
986.375
1000.3
989.554
988.112
980.31
1015.6
982.781
1039.1
971.71
1010.01
970.828
1000.11
1003.39
1000.19
1031.42
990.357
1001.73
1027.67
986.597
990.533
1012.98
957.946
970.871
1018.87
1028.8
993.554
1015.46
999.802
976.442
1022.6
984.784
1030.21
971.152
983.678
1013.69
964.061
1046.75
954.554
988.273
1073.31
977.031
983.129
1030.28
1007.57
1026.2
995.514
1017.01
985.491
987.221
1056.87
1016.71
913.935
1064.88
944.245
1113.63
966.479
1038.56
975.034
993.694
1027.8
986.319
984.374
1019.9
994.196
