# vtk DataFile Version 3.0
Frame: 3, Time: 0.067
ASCII
DATASET UNSTRUCTURED_GRID
POINTS 64 double
0.5125 0.589486 0 
0.5125 0.614486 0 
0.5375 0.589486 0 
0.5375 0.614486 0 
0.5125 0.639486 0 
0.5125 0.664486 0 
0.5375 0.639486 0 
0.5375 0.664486 0 
0.5125 0.689486 0 
0.5125 0.714486 0 
0.5375 0.689486 0 
0.5375 0.714486 0 
0.5125 0.739486 0 
0.5125 0.764486 0 
0.5375 0.739486 0 
0.5375 0.764486 0 
0.5625 0.589486 0 
0.5625 0.614486 0 
0.5875 0.589486 0 
0.5875 0.614486 0 
0.5625 0.639486 0 
0.5625 0.664486 0 
0.5875 0.639486 0 
0.5875 0.664486 0 
0.5625 0.689486 0 
0.5625 0.714486 0 
0.5875 0.689486 0 
0.5875 0.714486 0 
0.5625 0.739486 0 
0.5625 0.764486 0 
0.5875 0.739486 0 
0.5875 0.764486 0 
0.6125 0.589486 0 
0.6125 0.614486 0 
0.6375 0.589486 0 
0.6375 0.614486 0 
0.6125 0.639486 0 
0.6125 0.664486 0 
0.6375 0.639486 0 
0.6375 0.664486 0 
0.6125 0.689486 0 
0.6125 0.714486 0 
0.6375 0.689486 0 
0.6375 0.714486 0 
0.6125 0.739486 0 
0.6125 0.764486 0 
0.6375 0.739486 0 
0.6375 0.764486 0 
0.6625 0.589486 0 
0.6625 0.614486 0 
0.6875 0.589486 0 
0.6875 0.614486 0 
0.6625 0.639486 0 
0.6625 0.664486 0 
0.6875 0.639486 0 
0.6875 0.664486 0 
0.6625 0.689486 0 
0.6625 0.714486 0 
0.6875 0.689486 0 
0.6875 0.714486 0 
0.6625 0.739486 0 
0.6625 0.764486 0 
0.6875 0.739486 0 
0.6875 0.764486 0 
CELLS 64 128
1 0
1 1
1 2
1 3
1 4
1 5
1 6
1 7
1 8
1 9
1 10
1 11
1 12
1 13
1 14
1 15
1 16
1 17
1 18
1 19
1 20
1 21
1 22
1 23
1 24
1 25
1 26
1 27
1 28
1 29
1 30
1 31
1 32
1 33
1 34
1 35
1 36
1 37
1 38
1 39
1 40
1 41
1 42
1 43
1 44
1 45
1 46
1 47
1 48
1 49
1 50
1 51
1 52
1 53
1 54
1 55
1 56
1 57
1 58
1 59
1 60
1 61
1 62
1 63
CELL_TYPES 64
1
1
1
1
1
1
1
1
1
1
1
1
1
1
1
1
1
1
1
1
1
1
1
1
1
1
1
1
1
1
1
1
1
1
1
1
1
1
1
1
1
1
1
1
1
1
1
1
1
1
1
1
1
1
1
1
1
1
1
1
1
1
1
1
POINT_DATA 64
VECTORS displacement double
-3.18156e-17 -0.0230143 0 
-8.14104e-18 -0.0230143 0 
-1.66249e-17 -0.0230143 0 
-2.64321e-18 -0.0230143 0 
1.84428e-17 -0.0230143 0 
5.24632e-18 -0.0230143 0 
1.18758e-17 -0.0230143 0 
5.34821e-18 -0.0230143 0 
-1.5154e-17 -0.0230143 0 
-3.98572e-18 -0.0230143 0 
-5.40781e-18 -0.0230143 0 
3.82838e-19 -0.0230143 0 
1.20761e-17 -0.0230143 0 
6.17749e-18 -0.0230143 0 
9.0872e-18 -0.0230143 0 
8.13096e-18 -0.0230143 0 
-5.93639e-18 -0.0230143 0 
1.08567e-18 -0.0230143 0 
2.49897e-19 -0.0230143 0 
3.04561e-18 -0.0230143 0 
7.55329e-18 -0.0230143 0 
5.26072e-18 -0.0230143 0 
5.47536e-18 -0.0230143 0 
4.98385e-18 -0.0230143 0 
8.6242e-19 -0.0230143 0 
3.25988e-18 -0.0230143 0 
3.65669e-18 -0.0230143 0 
4.64542e-18 -0.0230143 0 
7.12211e-18 -0.0230143 0 
8.59372e-18 -0.0230143 0 
6.18086e-18 -0.0230143 0 
7.56577e-18 -0.0230143 0 
4.32335e-18 -0.0230143 0 
3.46004e-18 -0.0230143 0 
6.28395e-18 -0.0230143 0 
2.32896e-18 -0.0230143 0 
2.4077e-18 -0.0230143 0 
4.06549e-18 -0.0230143 0 
-1.64969e-18 -0.0230143 0 
2.50565e-18 -0.0230143 0 
6.1297e-18 -0.0230143 0 
5.87155e-18 -0.0230143 0 
8.28143e-18 -0.0230143 0 
6.93829e-18 -0.0230143 0 
5.17892e-18 -0.0230143 0 
6.35139e-18 -0.0230143 0 
4.1163e-18 -0.0230143 0 
4.95057e-18 -0.0230143 0 
1.20909e-17 -0.0230143 0 
1.92003e-18 -0.0230143 0 
2.17441e-17 -0.0230143 0 
2.23326e-18 -0.0230143 0 
-8.56769e-18 -0.0230143 0 
4.56107e-19 -0.0230143 0 
-1.83463e-17 -0.0230143 0 
-2.08315e-18 -0.0230143 0 
1.31938e-17 -0.0230143 0 
8.93678e-18 -0.0230143 0 
2.08668e-17 -0.0230143 0 
1.1867e-17 -0.0230143 0 
1.65258e-18 -0.0230143 0 
4.75812e-18 -0.0230143 0 
-2.21226e-18 -0.0230143 0 
5.77403e-18 -0.0230143 0 
VECTORS velocity double
-3.31394e-15 -0.66708 0 
-9.86419e-16 -0.66708 0 
-1.85749e-15 -0.66708 0 
-4.01575e-16 -0.66708 0 
4.27526e-15 -0.66708 0 
7.49301e-16 -0.66708 0 
1.57022e-15 -0.66708 0 
6.28106e-16 -0.66708 0 
-2.58826e-15 -0.66708 0 
-3.01284e-16 -0.66708 0 
-1.75417e-16 -0.66708 0 
2.28733e-16 -0.66708 0 
7.44263e-16 -0.66708 0 
-2.05395e-15 -0.66708 0 
-8.59263e-17 -0.66708 0 
-3.315e-16 -0.66708 0 
-1.12465e-15 -0.66708 0 
-1.31772e-16 -0.66708 0 
-1.11543e-15 -0.66708 0 
-1.77008e-16 -0.66708 0 
2.70075e-16 -0.66708 0 
5.80829e-16 -0.66708 0 
3.74821e-16 -0.66708 0 
6.07473e-16 -0.66708 0 
9.13431e-16 -0.66708 0 
4.74959e-16 -0.66708 0 
6.78289e-16 -0.66708 0 
4.37392e-16 -0.66708 0 
-3.00952e-16 -0.66708 0 
5.23041e-16 -0.66708 0 
9.91853e-17 -0.66708 0 
5.09673e-16 -0.66708 0 
-8.61369e-16 -0.66708 0 
-6.62969e-17 -0.66708 0 
-3.62472e-16 -0.66708 0 
2.00361e-16 -0.66708 0 
4.66058e-16 -0.66708 0 
5.97206e-16 -0.66708 0 
5.43788e-16 -0.66708 0 
5.50029e-16 -0.66708 0 
4.48711e-16 -0.66708 0 
4.38362e-16 -0.66708 0 
2.24698e-16 -0.66708 0 
4.77869e-16 -0.66708 0 
5.61874e-16 -0.66708 0 
5.362e-16 -0.66708 0 
1.08711e-15 -0.66708 0 
6.0262e-16 -0.66708 0 
1.34341e-15 -0.66708 0 
6.37133e-16 -0.66708 0 
4.25627e-15 -0.66708 0 
1.24402e-15 -0.66708 0 
-8.20501e-16 -0.66708 0 
2.49212e-16 -0.66708 0 
-3.62681e-15 -0.66708 0 
-3.05247e-16 -0.66708 0 
1.07112e-15 -0.66708 0 
6.02059e-16 -0.66708 0 
2.98797e-15 -0.66708 0 
8.10932e-16 -0.66708 0 
8.62813e-16 -0.66708 0 
1.4449e-15 -0.66708 0 
-1.1103e-16 -0.66708 0 
3.06303e-15 -0.66708 0 
SCALARS mass double 1
LOOKUP_TABLE default
0.625
0.625
0.625
0.625
0.625
0.625
0.625
0.625
0.625
0.625
0.625
0.625
0.625
0.625
0.625
0.625
0.625
0.625
0.625
0.625
0.625
0.625
0.625
0.625
0.625
0.625
0.625
0.625
0.625
0.625
0.625
0.625
0.625
0.625
0.625
0.625
0.625
0.625
0.625
0.625
0.625
0.625
0.625
0.625
0.625
0.625
0.625
0.625
0.625
0.625
0.625
0.625
0.625
0.625
0.625
0.625
0.625
0.625
0.625
0.625
0.625
0.625
0.625
0.625
SCALARS volume double 1
LOOKUP_TABLE default
0.000625
0.000625
0.000625
0.000625
0.000625
0.000625
0.000625
0.000625
0.000625
0.000625
0.000625
0.000625
0.000625
0.000625
0.000625
0.000625
0.000625
0.000625
0.000625
0.000625
0.000625
0.000625
0.000625
0.000625
0.000625
0.000625
0.000625
0.000625
0.000625
0.000625
0.000625
0.000625
0.000625
0.000625
0.000625
0.000625
0.000625
0.000625
0.000625
0.000625
0.000625
0.000625
0.000625
0.000625
0.000625
0.000625
0.000625
0.000625
0.000625
0.000625
0.000625
0.000625
0.000625
0.000625
0.000625
0.000625
0.000625
0.000625
0.000625
0.000625
0.000625
0.000625
0.000625
0.000625
VECTORS momentum double
-2.07121e-15 -0.416925 0 
-6.16512e-16 -0.416925 0 
-1.16093e-15 -0.416925 0 
-2.50985e-16 -0.416925 0 
2.67204e-15 -0.416925 0 
4.68313e-16 -0.416925 0 
9.81389e-16 -0.416925 0 
3.92566e-16 -0.416925 0 
-1.61766e-15 -0.416925 0 
-1.88303e-16 -0.416925 0 
-1.09636e-16 -0.416925 0 
1.42958e-16 -0.416925 0 
4.65164e-16 -0.416925 0 
-1.28372e-15 -0.416925 0 
-5.37039e-17 -0.416925 0 
-2.07187e-16 -0.416925 0 
-7.02908e-16 -0.416925 0 
-8.23573e-17 -0.416925 0 
-6.97143e-16 -0.416925 0 
-1.1063e-16 -0.416925 0 
1.68797e-16 -0.416925 0 
3.63018e-16 -0.416925 0 
2.34263e-16 -0.416925 0 
3.79671e-16 -0.416925 0 
5.70895e-16 -0.416925 0 
2.96849e-16 -0.416925 0 
4.2393e-16 -0.416925 0 
2.7337e-16 -0.416925 0 
-1.88095e-16 -0.416925 0 
3.269e-16 -0.416925 0 
6.19908e-17 -0.416925 0 
3.18546e-16 -0.416925 0 
-5.38356e-16 -0.416925 0 
-4.14356e-17 -0.416925 0 
-2.26545e-16 -0.416925 0 
1.25225e-16 -0.416925 0 
2.91286e-16 -0.416925 0 
3.73254e-16 -0.416925 0 
3.39867e-16 -0.416925 0 
3.43768e-16 -0.416925 0 
2.80444e-16 -0.416925 0 
2.73976e-16 -0.416925 0 
1.40436e-16 -0.416925 0 
2.98668e-16 -0.416925 0 
3.51171e-16 -0.416925 0 
3.35125e-16 -0.416925 0 
6.79447e-16 -0.416925 0 
3.76638e-16 -0.416925 0 
8.3963e-16 -0.416925 0 
3.98208e-16 -0.416925 0 
2.66017e-15 -0.416925 0 
7.77513e-16 -0.416925 0 
-5.12813e-16 -0.416925 0 
1.55757e-16 -0.416925 0 
-2.26676e-15 -0.416925 0 
-1.90779e-16 -0.416925 0 
6.69449e-16 -0.416925 0 
3.76287e-16 -0.416925 0 
1.86748e-15 -0.416925 0 
5.06832e-16 -0.416925 0 
5.39258e-16 -0.416925 0 
9.0306e-16 -0.416925 0 
-6.9394e-17 -0.416925 0 
1.91439e-15 -0.416925 0 
VECTORS body_force double
0 -9.81 0 
0 -9.81 0 
0 -9.81 0 
0 -9.81 0 
0 -9.81 0 
0 -9.81 0 
0 -9.81 0 
0 -9.81 0 
0 -9.81 0 
0 -9.81 0 
0 -9.81 0 
0 -9.81 0 
0 -9.81 0 
0 -9.81 0 
0 -9.81 0 
0 -9.81 0 
0 -9.81 0 
0 -9.81 0 
0 -9.81 0 
0 -9.81 0 
0 -9.81 0 
0 -9.81 0 
0 -9.81 0 
0 -9.81 0 
0 -9.81 0 
0 -9.81 0 
0 -9.81 0 
0 -9.81 0 
0 -9.81 0 
0 -9.81 0 
0 -9.81 0 
0 -9.81 0 
0 -9.81 0 
0 -9.81 0 
0 -9.81 0 
0 -9.81 0 
0 -9.81 0 
0 -9.81 0 
0 -9.81 0 
0 -9.81 0 
0 -9.81 0 
0 -9.81 0 
0 -9.81 0 
0 -9.81 0 
0 -9.81 0 
0 -9.81 0 
0 -9.81 0 
0 -9.81 0 
0 -9.81 0 
0 -9.81 0 
0 -9.81 0 
0 -9.81 0 
0 -9.81 0 
0 -9.81 0 
0 -9.81 0 
0 -9.81 0 
0 -9.81 0 
0 -9.81 0 
0 -9.81 0 
0 -9.81 0 
0 -9.81 0 
0 -9.81 0 
0 -9.81 0 
0 -9.81 0 
TENSORS cauchy_stress double
5.1827e-11 -1.11207e-11 0
-1.11207e-11 -3.48727e-11 0
0 0 0

-7.32644e-11 3.04425e-11 0
3.04425e-11 -2.27338e-10 0
0 0 0

4.68073e-11 -7.12325e-12 0
-7.12325e-12 -4.65851e-11 0
0 0 0

-6.76359e-11 9.52542e-12 0
9.52542e-12 -2.14205e-10 0
0 0 0

3.43739e-12 1.30366e-11 0
1.30366e-11 7.53747e-11 0
0 0 0

7.16648e-11 -4.51291e-11 0
-4.51291e-11 1.66173e-10 0
0 0 0

9.66959e-12 2.26767e-12 0
2.26767e-12 8.99165e-11 0
0 0 0

7.62765e-11 -2.64691e-11 0
-2.64691e-11 1.76934e-10 0
0 0 0

-7.01099e-12 -2.08231e-11 0
-2.08231e-11 -1.1632e-10 0
0 0 0

-6.08342e-11 2.41348e-11 0
2.41348e-11 -1.86752e-10 0
0 0 0

1.27205e-12 -1.37335e-11 0
-1.37335e-11 -9.69928e-11 0
0 0 0

-6.5281e-11 1.14627e-11 0
1.14627e-11 -1.97128e-10 0
0 0 0

9.29208e-12 8.63149e-12 0
8.63149e-12 5.23373e-11 0
0 0 0

6.38896e-12 -1.88481e-11 0
-1.88481e-11 -5.12799e-12 0
0 0 0

9.79768e-12 3.16288e-12 0
3.16288e-12 5.3517e-11 0
0 0 0

1.1124e-11 -5.81751e-12 0
-5.81751e-12 5.92033e-12 0
0 0 0

7.65903e-12 -1.58193e-11 0
-1.58193e-11 -4.5578e-11 0
0 0 0

-8.18357e-11 -5.58392e-12 0
-5.58392e-12 -2.11052e-10 0
0 0 0

2.59713e-11 -1.91302e-11 0
-1.91302e-11 -2.84941e-12 0
0 0 0

-7.56339e-11 -1.22979e-11 0
-1.22979e-11 -1.96581e-10 0
0 0 0

3.72912e-11 -7.13032e-12 0
-7.13032e-12 1.08325e-10 0
0 0 0

7.49816e-11 -1.8298e-11 0
-1.8298e-11 1.77797e-10 0
0 0 0

4.59842e-11 -1.02059e-11 0
-1.02059e-11 1.28608e-10 0
0 0 0

8.48407e-11 -1.13166e-11 0
-1.13166e-11 2.00801e-10 0
0 0 0

-3.52578e-11 -1.11786e-11 0
-1.11786e-11 -1.10927e-10 0
0 0 0

-7.81616e-11 -2.99565e-13 0
-2.99565e-13 -1.96588e-10 0
0 0 0

-2.95977e-11 -7.77293e-12 0
-7.77293e-12 -9.77205e-11 0
0 0 0

-7.56748e-11 -3.33766e-12 0
-3.33766e-12 -1.90785e-10 0
0 0 0

2.30435e-11 -2.20613e-12 0
-2.20613e-12 6.34219e-11 0
0 0 0

3.31996e-13 -4.03163e-12 0
-4.03163e-12 1.13177e-11 0
0 0 0

2.28533e-11 -1.95592e-12 0
-1.95592e-12 6.29782e-11 0
0 0 0

-1.09315e-12 -4.36637e-12 0
-4.36637e-12 7.99238e-12 0
0 0 0

1.44971e-11 -7.86387e-12 0
-7.86387e-12 1.37177e-11 0
0 0 0

-8.53924e-11 -9.87665e-12 0
-9.87665e-12 -1.87648e-10 0
0 0 0

4.68842e-12 -1.01447e-11 0
-1.01447e-11 -9.16916e-12 0
0 0 0

-8.47743e-11 -1.46672e-11 0
-1.46672e-11 -1.86206e-10 0
0 0 0

3.9693e-11 -5.50273e-12 0
-5.50273e-12 1.34231e-10 0
0 0 0

8.00189e-11 -2.20187e-12 0
-2.20187e-12 2.02709e-10 0
0 0 0

4.07683e-11 -7.00601e-12 0
-7.00601e-12 1.3674e-10 0
0 0 0

7.83104e-11 4.52217e-12 0
4.52217e-12 1.98723e-10 0
0 0 0

-3.14158e-11 -2.1935e-12 0
-2.1935e-12 -9.53726e-11 0
0 0 0

-7.92489e-11 -5.43057e-12 0
-5.43057e-12 -1.95855e-10 0
0 0 0

-3.56932e-11 2.65492e-12 0
2.65492e-12 -1.05353e-10 0
0 0 0

-7.69335e-11 -7.78352e-12 0
-7.78352e-12 -1.90452e-10 0
0 0 0

2.17398e-11 -2.59274e-12 0
-2.59274e-12 6.16249e-11 0
0 0 0

-4.20417e-12 -1.24104e-12 0
-1.24104e-12 4.55759e-12 0
0 0 0

2.42638e-11 -3.50385e-12 0
-3.50385e-12 6.75143e-11 0
0 0 0

-4.49164e-13 2.73854e-12 0
2.73854e-12 1.33193e-11 0
0 0 0

4.08179e-11 3.13402e-12 0
3.13402e-12 -3.76554e-12 0
0 0 0

-8.04512e-11 -1.32133e-11 0
-1.32133e-11 -1.90932e-10 0
0 0 0

3.88107e-11 -3.30408e-12 0
-3.30408e-12 -8.44903e-12 0
0 0 0

-9.06658e-11 -3.19625e-11 0
-3.19625e-11 -2.14766e-10 0
0 0 0

7.63701e-12 -9.64195e-12 0
-9.64195e-12 1.18113e-10 0
0 0 0

7.24457e-11 1.90099e-11 0
1.90099e-11 1.95084e-10 0
0 0 0

2.43965e-12 -1.66481e-11 0
-1.66481e-11 1.05986e-10 0
0 0 0

7.29277e-11 3.76724e-11 0
3.76724e-11 1.96208e-10 0
0 0 0

-1.95368e-12 9.10446e-12 0
9.10446e-12 -8.32561e-11 0
0 0 0

-6.37175e-11 -1.50853e-11 0
-1.50853e-11 -1.78728e-10 0
0 0 0

-2.53094e-12 1.6406e-11 0
1.6406e-11 -8.4603e-11 0
0 0 0

-6.3037e-11 -2.63164e-11 0
-2.63164e-11 -1.7714e-10 0
0 0 0

1.05285e-11 -6.00318e-12 0
-6.00318e-12 6.42058e-11 0
0 0 0

9.88982e-12 5.42626e-12 0
5.42626e-12 1.26567e-11 0
0 0 0

9.17979e-12 -9.74112e-12 0
-9.74112e-12 6.10588e-11 0
0 0 0

2.8794e-12 1.81944e-11 0
1.81944e-11 -3.70097e-12 0
0 0 0

TENSORS velocity_gradient double
1.49637e-15 1.47741e-14 0
-5.32907e-15 4.79616e-14 0
0 0 0

1.58389e-15 4.26061e-14 0
-1.5099e-14 4.17444e-14 0
0 0 0

1.49637e-15 3.02136e-14 0
-1.42109e-14 3.90799e-14 0
0 0 0

1.58389e-15 3.2717e-14 0
-1.06581e-14 3.90799e-14 0
0 0 0

-8.30522e-15 4.26061e-14 0
-1.06581e-14 4.26326e-14 0
0 0 0

-4.62604e-15 -2.4514e-14 0
-1.24345e-14 -4.08562e-14 0
0 0 0

-8.30522e-15 3.2717e-14 0
-3.55271e-15 3.19744e-14 0
0 0 0

-4.62604e-15 -1.20174e-14 0
-5.32907e-15 -2.66454e-14 0
0 0 0

7.87058e-15 -2.4514e-14 0
-5.32907e-15 -3.01981e-14 0
0 0 0

1.40148e-14 -1.13722e-14 0
-9.76996e-15 -2.39808e-14 0
0 0 0

7.87058e-15 -1.20174e-14 0
-1.06581e-14 -4.61853e-14 0
0 0 0

1.40148e-14 -9.35616e-15 0
-8.88178e-15 -2.30926e-14 0
0 0 0

1.60308e-14 -1.13722e-14 0
-5.32907e-15 -1.95399e-14 0
0 0 0

1.46056e-14 1.12036e-14 0
-4.44089e-15 2.39808e-14 0
0 0 0

1.60308e-14 -9.35616e-15 0
0 -2.84217e-14 0
0 0 0

1.46056e-14 7.54213e-15 0
0 4.26326e-14 0
0 0 0

1.10912e-14 3.20027e-14 0
-3.55271e-15 3.55271e-14 0
0 0 0

3.63972e-15 2.54796e-14 0
-1.59872e-14 3.37508e-14 0
0 0 0

1.10912e-14 2.01415e-14 0
0 2.84217e-14 0
0 0 0

3.63972e-15 2.08939e-14 0
-1.06581e-14 3.90799e-14 0
0 0 0

-9.45989e-16 2.54796e-14 0
-7.10543e-15 2.4869e-14 0
0 0 0

-7.27662e-16 -4.09891e-15 0
-1.24345e-14 -3.37508e-14 0
0 0 0

-9.45989e-16 2.08939e-14 0
-1.77636e-14 3.55271e-14 0
0 0 0

-7.27662e-16 -7.5864e-16 0
0 -1.42109e-14 0
0 0 0

2.61261e-15 -4.09891e-15 0
1.77636e-15 -2.66454e-14 0
0 0 0

5.97986e-15 -6.65576e-15 0
-2.66454e-15 -1.68754e-14 0
0 0 0

2.61261e-15 -7.5864e-16 0
-1.06581e-14 -1.77636e-14 0
0 0 0

5.97986e-15 -3.27098e-15 0
-5.32907e-15 -2.66454e-14 0
0 0 0

9.36463e-15 -6.65576e-15 0
-1.24345e-14 -1.95399e-14 0
0 0 0

9.99429e-15 5.13103e-15 0
-5.32907e-15 3.73035e-14 0
0 0 0

9.36463e-15 -3.27098e-15 0
-3.55271e-15 -3.19744e-14 0
0 0 0

9.99429e-15 3.97024e-15 0
-7.10543e-15 4.26326e-14 0
0 0 0

2.36514e-14 7.8727e-15 0
-1.77636e-15 1.95399e-14 0
0 0 0

1.13199e-14 1.25473e-14 0
-1.06581e-14 3.19744e-14 0
0 0 0

2.36514e-14 -4.80358e-15 0
-7.10543e-15 7.10543e-15 0
0 0 0

1.13199e-14 4.39839e-16 0
0 1.42109e-14 0
0 0 0

-7.87581e-16 1.25473e-14 0
-1.24345e-14 2.30926e-14 0
0 0 0

-3.25544e-15 2.80975e-15 0
-7.10543e-15 -2.13163e-14 0
0 0 0

-7.87581e-16 4.39839e-16 0
-1.06581e-14 3.19744e-14 0
0 0 0

-3.25544e-15 6.60627e-15 0
-1.06581e-14 -2.4869e-14 0
0 0 0

5.4108e-16 2.80975e-15 0
-1.24345e-14 -1.59872e-14 0
0 0 0

4.96308e-15 8.35644e-16 0
-8.88178e-15 -2.30926e-14 0
0 0 0

5.4108e-16 6.60627e-15 0
-1.77636e-14 -1.77636e-14 0
0 0 0

4.96308e-15 5.66412e-15 0
-5.32907e-15 -2.66454e-14 0
0 0 0

9.79156e-15 8.35644e-16 0
-1.77636e-15 -3.01981e-14 0
0 0 0

1.01999e-14 2.15775e-15 0
-4.44089e-15 4.52971e-14 0
0 0 0

9.79156e-15 5.66412e-15 0
-1.06581e-14 -2.4869e-14 0
0 0 0

1.01999e-14 -3.06428e-16 0
7.10543e-15 3.19744e-14 0
0 0 0

2.8496e-14 -7.96691e-15 0
1.95399e-14 1.95399e-14 0
0 0 0

1.62435e-14 -1.77845e-14 0
7.99361e-15 1.5099e-14 0
0 0 0

2.8496e-14 -1.61729e-15 0
1.77636e-14 1.06581e-14 0
0 0 0

1.62435e-14 -4.21257e-14 0
3.55271e-15 7.10543e-15 0
0 0 0

-8.09767e-15 -1.77845e-14 0
3.55271e-15 1.06581e-14 0
0 0 0

-1.05177e-14 1.44174e-14 0
1.77636e-15 -3.73035e-14 0
0 0 0

-8.09767e-15 -4.21257e-14 0
3.55271e-15 0 0
0 0 0

-1.05177e-14 2.62431e-14 0
5.32907e-15 -3.01981e-14 0
0 0 0

1.30802e-15 1.44174e-14 0
-1.06581e-14 -1.77636e-14 0
0 0 0

8.5909e-15 1.02437e-14 0
-6.21725e-15 -6.21725e-15 0
0 0 0

1.30802e-15 2.62431e-14 0
-7.10543e-15 -2.84217e-14 0
0 0 0

8.5909e-15 1.45744e-14 0
-1.42109e-14 -1.42109e-14 0
0 0 0

1.29216e-14 1.02437e-14 0
-1.77636e-15 -1.24345e-14 0
0 0 0

1.28125e-14 -3.03569e-15 0
-5.32907e-15 2.30926e-14 0
0 0 0

1.29216e-14 1.45744e-14 0
0 0 0
0 0 0

1.28125e-14 -6.03003e-15 0
-3.55271e-15 3.55271e-14 0
0 0 0

SCALARS active double 1
LOOKUP_TABLE default
1
1
1
1
1
1
1
1
1
1
1
1
1
1
1
1
1
1
1
1
1
1
1
1
1
1
1
1
1
1
1
1
1
1
1
1
1
1
1
1
1
1
1
1
1
1
1
1
1
1
1
1
1
1
1
1
1
1
1
1
1
1
1
1
SCALARS extent double 1
LOOKUP_TABLE default
0.0125
0.0125
0.0125
0.0125
0.0125
0.0125
0.0125
0.0125
0.0125
0.0125
0.0125
0.0125
0.0125
0.0125
0.0125
0.0125
0.0125
0.0125
0.0125
0.0125
0.0125
0.0125
0.0125
0.0125
0.0125
0.0125
0.0125
0.0125
0.0125
0.0125
0.0125
0.0125
0.0125
0.0125
0.0125
0.0125
0.0125
0.0125
0.0125
0.0125
0.0125
0.0125
0.0125
0.0125
0.0125
0.0125
0.0125
0.0125
0.0125
0.0125
0.0125
0.0125
0.0125
0.0125
0.0125
0.0125
0.0125
0.0125
0.0125
0.0125
0.0125
0.0125
0.0125
0.0125
SCALARS pressure double 1
LOOKUP_TABLE default
-8.47714e-12
1.50301e-10
-1.11102e-13
1.4092e-10
-3.9406e-11
-1.18919e-10
-4.9793e-11
-1.26605e-10
6.16654e-11
1.23793e-10
4.78604e-11
1.31204e-10
-3.08147e-11
-6.30489e-13
-3.16573e-11
-8.52215e-12
1.89595e-11
1.46444e-10
-1.15609e-11
1.36108e-10
-7.28081e-11
-1.26389e-10
-8.72963e-11
-1.42821e-10
7.30926e-11
1.37375e-10
6.36591e-11
1.3323e-10
-4.32327e-11
-5.82486e-12
-4.29158e-11
-3.44962e-12
-1.41074e-11
1.3652e-10
2.24037e-12
1.3549e-10
-8.69622e-11
-1.41364e-10
-8.87543e-11
-1.38516e-10
6.33942e-11
1.37552e-10
7.05232e-11
1.33693e-10
-4.16823e-11
-1.7671e-13
-4.5889e-11
-6.43506e-12
-1.85262e-11
1.35692e-10
-1.51808e-11
1.52716e-10
-6.28751e-11
-1.33765e-10
-5.42128e-11
-1.34568e-10
4.26049e-11
1.21223e-10
4.3567e-11
1.20088e-10
-3.73671e-11
-1.12732e-11
-3.51193e-11
4.10787e-13
SCALARS density double 1
LOOKUP_TABLE default
1000
1000
1000
1000
1000
1000
1000
1000
1000
1000
1000
1000
1000
1000
1000
1000
1000
1000
1000
1000
1000
1000
1000
1000
1000
1000
1000
1000
1000
1000
1000
1000
1000
1000
1000
1000
1000
1000
1000
1000
1000
1000
1000
1000
1000
1000
1000
1000
1000
1000
1000
1000
1000
1000
1000
1000
1000
1000
1000
1000
1000
1000
1000
1000
