# vtk DataFile Version 3.0
Frame: 2, Time: 0.05
ASCII
DATASET UNSTRUCTURED_GRID
POINTS 64 double
0.5125 0.599492 0 
0.5125 0.624492 0 
0.5375 0.599492 0 
0.5375 0.624492 0 
0.5125 0.649492 0 
0.5125 0.674492 0 
0.5375 0.649492 0 
0.5375 0.674492 0 
0.5125 0.699492 0 
0.5125 0.724492 0 
0.5375 0.699492 0 
0.5375 0.724492 0 
0.5125 0.749492 0 
0.5125 0.774492 0 
0.5375 0.749492 0 
0.5375 0.774492 0 
0.5625 0.599492 0 
0.5625 0.624492 0 
0.5875 0.599492 0 
0.5875 0.624492 0 
0.5625 0.649492 0 
0.5625 0.674492 0 
0.5875 0.649492 0 
0.5875 0.674492 0 
0.5625 0.699492 0 
0.5625 0.724492 0 
0.5875 0.699492 0 
0.5875 0.724492 0 
0.5625 0.749492 0 
0.5625 0.774492 0 
0.5875 0.749492 0 
0.5875 0.774492 0 
0.6125 0.599492 0 
0.6125 0.624492 0 
0.6375 0.599492 0 
0.6375 0.624492 0 
0.6125 0.649492 0 
0.6125 0.674492 0 
0.6375 0.649492 0 
0.6375 0.674492 0 
0.6125 0.699492 0 
0.6125 0.724492 0 
0.6375 0.699492 0 
0.6375 0.724492 0 
0.6125 0.749492 0 
0.6125 0.774492 0 
0.6375 0.749492 0 
0.6375 0.774492 0 
0.6625 0.599492 0 
0.6625 0.624492 0 
0.6875 0.599492 0 
0.6875 0.624492 0 
0.6625 0.649492 0 
0.6625 0.674492 0 
0.6875 0.649492 0 
0.6875 0.674492 0 
0.6625 0.699492 0 
0.6625 0.724492 0 
0.6875 0.699492 0 
0.6875 0.724492 0 
0.6625 0.749492 0 
0.6625 0.774492 0 
0.6875 0.749492 0 
0.6875 0.774492 0 
CELLS 64 128
1 0
1 1
1 2
1 3
1 4
1 5
1 6
1 7
1 8
1 9
1 10
1 11
1 12
1 13
1 14
1 15
1 16
1 17
1 18
1 19
1 20
1 21
1 22
1 23
1 24
1 25
1 26
1 27
1 28
1 29
1 30
1 31
1 32
1 33
1 34
1 35
1 36
1 37
1 38
1 39
1 40
1 41
1 42
1 43
1 44
1 45
1 46
1 47
1 48
1 49
1 50
1 51
1 52
1 53
1 54
1 55
1 56
1 57
1 58
1 59
1 60
1 61
1 62
1 63
CELL_TYPES 64
1
1
1
1
1
1
1
1
1
1
1
1
1
1
1
1
1
1
1
1
1
1
1
1
1
1
1
1
1
1
1
1
1
1
1
1
1
1
1
1
1
1
1
1
1
1
1
1
1
1
1
1
1
1
1
1
1
1
1
1
1
1
1
1
POINT_DATA 64
VECTORS displacement double
-1.05457e-17 -0.0130081 0 
-3.21927e-18 -0.0130081 0 
-5.88371e-18 -0.0130081 0 
-2.121e-18 -0.0130081 0 
2.81415e-18 -0.0130081 0 
-1.29845e-18 -0.0130081 0 
9.99451e-19 -0.0130081 0 
-6.54657e-19 -0.0130081 0 
-4.56107e-18 -0.0130081 0 
1.2498e-18 -0.0130081 0 
-1.91801e-18 -0.0130081 0 
1.17133e-18 -0.0130081 0 
6.636e-18 -0.0130081 0 
5.06271e-18 -0.0130081 0 
4.22715e-18 -0.0130081 0 
4.43954e-18 -0.0130081 0 
-2.56268e-18 -0.0130081 0 
-1.075e-18 -0.0130081 0 
-5.82638e-19 -0.0130081 0 
-8.12581e-20 -0.0130081 0 
1.90396e-19 -0.0130081 0 
-1.18452e-19 -0.0130081 0 
3.86982e-19 -0.0130081 0 
3.10167e-19 -0.0130081 0 
-2.86602e-19 -0.0130081 0 
1.09388e-18 -0.0130081 0 
3.3315e-19 -0.0130081 0 
1.01745e-18 -0.0130081 0 
2.63419e-18 -0.0130081 0 
3.65594e-18 -0.0130081 0 
1.85713e-18 -0.0130081 0 
2.7119e-18 -0.0130081 0 
7.48917e-19 -0.0130081 0 
5.21817e-19 -0.0130081 0 
1.43198e-18 -0.0130081 0 
7.34226e-19 -0.0130081 0 
3.90388e-19 -0.0130081 0 
6.94821e-19 -0.0130081 0 
2.00612e-19 -0.0130081 0 
1.03551e-18 -0.0130081 0 
1.02356e-18 -0.0130081 0 
1.01753e-18 -0.0130081 0 
1.78463e-18 -0.0130081 0 
1.09413e-18 -0.0130081 0 
1.10232e-18 -0.0130081 0 
1.64787e-18 -0.0130081 0 
3.69769e-19 -0.0130081 0 
4.63841e-19 -0.0130081 0 
2.95552e-18 -0.0130081 0 
6.02892e-19 -0.0130081 0 
5.31954e-18 -0.0130081 0 
1.27816e-19 -0.0130081 0 
-1.09062e-18 -0.0130081 0 
1.40789e-18 -0.0130081 0 
-3.48331e-18 -0.0130081 0 
1.81196e-18 -0.0130081 0 
3.49145e-18 -0.0130081 0 
1.18215e-18 -0.0130081 0 
6.144e-18 -0.0130081 0 
1.28161e-18 -0.0130081 0 
-1.09898e-18 -0.0130081 0 
-4.84242e-19 -0.0130081 0 
-3.30391e-18 -0.0130081 0 
-1.19638e-18 -0.0130081 0 
VECTORS velocity double
-2.52569e-15 -0.50031 0 
-3.56132e-17 -0.50031 0 
-7.89899e-16 -0.50031 0 
3.94333e-18 -0.50031 0 
2.14294e-15 -0.50031 0 
-3.379e-16 -0.50031 0 
7.48865e-16 -0.50031 0 
-1.01139e-16 -0.50031 0 
-2.30321e-15 -0.50031 0 
1.19961e-16 -0.50031 0 
-7.77007e-16 -0.50031 0 
8.28875e-17 -0.50031 0 
2.12048e-15 -0.50031 0 
3.56691e-17 -0.50031 0 
8.40514e-16 -0.50031 0 
2.94252e-16 -0.50031 0 
1.81682e-16 -0.50031 0 
6.73832e-17 -0.50031 0 
3.89057e-16 -0.50031 0 
1.54707e-16 -0.50031 0 
5.86081e-17 -0.50031 0 
2.68735e-17 -0.50031 0 
7.21649e-17 -0.50031 0 
4.61382e-17 -0.50031 0 
1.82064e-18 -0.50031 0 
6.03314e-17 -0.50031 0 
3.32761e-17 -0.50031 0 
5.22928e-17 -0.50031 0 
1.71055e-16 -0.50031 0 
3.69601e-16 -0.50031 0 
1.12106e-16 -0.50031 0 
2.61718e-16 -0.50031 0 
3.99631e-16 -0.50031 0 
1.60567e-16 -0.50031 0 
2.13405e-16 -0.50031 0 
8.49645e-17 -0.50031 0 
4.46591e-17 -0.50031 0 
5.5914e-17 -0.50031 0 
-2.39095e-17 -0.50031 0 
5.62007e-17 -0.50031 0 
8.032e-17 -0.50031 0 
5.6393e-17 -0.50031 0 
1.42952e-16 -0.50031 0 
7.26321e-17 -0.50031 0 
5.14954e-17 -0.50031 0 
1.34043e-16 -0.50031 0 
-1.0776e-17 -0.50031 0 
-1.34249e-17 -0.50031 0 
5.69275e-16 -0.50031 0 
-2.32029e-16 -0.50031 0 
1.46724e-15 -0.50031 0 
-7.90413e-16 -0.50031 0 
-8.10671e-16 -0.50031 0 
1.37486e-16 -0.50031 0 
-2.31562e-15 -0.50031 0 
2.99771e-16 -0.50031 0 
9.03628e-16 -0.50031 0 
6.45278e-17 -0.50031 0 
2.36235e-15 -0.50031 0 
3.20801e-17 -0.50031 0 
-6.58326e-16 -0.50031 0 
3.3792e-17 -0.50031 0 
-1.89115e-15 -0.50031 0 
2.75694e-16 -0.50031 0 
SCALARS mass double 1
LOOKUP_TABLE default
0.625
0.625
0.625
0.625
0.625
0.625
0.625
0.625
0.625
0.625
0.625
0.625
0.625
0.625
0.625
0.625
0.625
0.625
0.625
0.625
0.625
0.625
0.625
0.625
0.625
0.625
0.625
0.625
0.625
0.625
0.625
0.625
0.625
0.625
0.625
0.625
0.625
0.625
0.625
0.625
0.625
0.625
0.625
0.625
0.625
0.625
0.625
0.625
0.625
0.625
0.625
0.625
0.625
0.625
0.625
0.625
0.625
0.625
0.625
0.625
0.625
0.625
0.625
0.625
SCALARS volume double 1
LOOKUP_TABLE default
0.000625
0.000625
0.000625
0.000625
0.000625
0.000625
0.000625
0.000625
0.000625
0.000625
0.000625
0.000625
0.000625
0.000625
0.000625
0.000625
0.000625
0.000625
0.000625
0.000625
0.000625
0.000625
0.000625
0.000625
0.000625
0.000625
0.000625
0.000625
0.000625
0.000625
0.000625
0.000625
0.000625
0.000625
0.000625
0.000625
0.000625
0.000625
0.000625
0.000625
0.000625
0.000625
0.000625
0.000625
0.000625
0.000625
0.000625
0.000625
0.000625
0.000625
0.000625
0.000625
0.000625
0.000625
0.000625
0.000625
0.000625
0.000625
0.000625
0.000625
0.000625
0.000625
0.000625
0.000625
VECTORS momentum double
-1.57855e-15 -0.312694 0 
-2.22582e-17 -0.312694 0 
-4.93687e-16 -0.312694 0 
2.46458e-18 -0.312694 0 
1.33933e-15 -0.312694 0 
-2.11188e-16 -0.312694 0 
4.68041e-16 -0.312694 0 
-6.32121e-17 -0.312694 0 
-1.43951e-15 -0.312694 0 
7.49758e-17 -0.312694 0 
-4.8563e-16 -0.312694 0 
5.18047e-17 -0.312694 0 
1.3253e-15 -0.312694 0 
2.22932e-17 -0.312694 0 
5.25321e-16 -0.312694 0 
1.83907e-16 -0.312694 0 
1.13551e-16 -0.312694 0 
4.21145e-17 -0.312694 0 
2.4316e-16 -0.312694 0 
9.66916e-17 -0.312694 0 
3.66301e-17 -0.312694 0 
1.6796e-17 -0.312694 0 
4.51031e-17 -0.312694 0 
2.88364e-17 -0.312694 0 
1.1379e-18 -0.312694 0 
3.77071e-17 -0.312694 0 
2.07975e-17 -0.312694 0 
3.2683e-17 -0.312694 0 
1.06909e-16 -0.312694 0 
2.31001e-16 -0.312694 0 
7.00661e-17 -0.312694 0 
1.63574e-16 -0.312694 0 
2.49769e-16 -0.312694 0 
1.00354e-16 -0.312694 0 
1.33378e-16 -0.312694 0 
5.31028e-17 -0.312694 0 
2.79119e-17 -0.312694 0 
3.49462e-17 -0.312694 0 
-1.49435e-17 -0.312694 0 
3.51255e-17 -0.312694 0 
5.02e-17 -0.312694 0 
3.52456e-17 -0.312694 0 
8.93453e-17 -0.312694 0 
4.5395e-17 -0.312694 0 
3.21846e-17 -0.312694 0 
8.37769e-17 -0.312694 0 
-6.73503e-18 -0.312694 0 
-8.39058e-18 -0.312694 0 
3.55797e-16 -0.312694 0 
-1.45018e-16 -0.312694 0 
9.17026e-16 -0.312694 0 
-4.94008e-16 -0.312694 0 
-5.06669e-16 -0.312694 0 
8.5929e-17 -0.312694 0 
-1.44727e-15 -0.312694 0 
1.87357e-16 -0.312694 0 
5.64767e-16 -0.312694 0 
4.03299e-17 -0.312694 0 
1.47647e-15 -0.312694 0 
2.00501e-17 -0.312694 0 
-4.11454e-16 -0.312694 0 
2.112e-17 -0.312694 0 
-1.18197e-15 -0.312694 0 
1.72309e-16 -0.312694 0 
VECTORS body_force double
0 -9.81 0 
0 -9.81 0 
0 -9.81 0 
0 -9.81 0 
0 -9.81 0 
0 -9.81 0 
0 -9.81 0 
0 -9.81 0 
0 -9.81 0 
0 -9.81 0 
0 -9.81 0 
0 -9.81 0 
0 -9.81 0 
0 -9.81 0 
0 -9.81 0 
0 -9.81 0 
0 -9.81 0 
0 -9.81 0 
0 -9.81 0 
0 -9.81 0 
0 -9.81 0 
0 -9.81 0 
0 -9.81 0 
0 -9.81 0 
0 -9.81 0 
0 -9.81 0 
0 -9.81 0 
0 -9.81 0 
0 -9.81 0 
0 -9.81 0 
0 -9.81 0 
0 -9.81 0 
0 -9.81 0 
0 -9.81 0 
0 -9.81 0 
0 -9.81 0 
0 -9.81 0 
0 -9.81 0 
0 -9.81 0 
0 -9.81 0 
0 -9.81 0 
0 -9.81 0 
0 -9.81 0 
0 -9.81 0 
0 -9.81 0 
0 -9.81 0 
0 -9.81 0 
0 -9.81 0 
0 -9.81 0 
0 -9.81 0 
0 -9.81 0 
0 -9.81 0 
0 -9.81 0 
0 -9.81 0 
0 -9.81 0 
0 -9.81 0 
0 -9.81 0 
0 -9.81 0 
0 -9.81 0 
0 -9.81 0 
0 -9.81 0 
0 -9.81 0 
0 -9.81 0 
0 -9.81 0 
TENSORS cauchy_stress double
-3.35214e-11 3.29491e-12 0
3.29491e-12 -1.26032e-10 0
0 0 0

9.88333e-12 9.51791e-12 0
9.51791e-12 1.17968e-11 0
0 0 0

-3.09466e-11 7.58296e-13 0
7.58296e-13 -1.20024e-10 0
0 0 0

1.05415e-11 3.58802e-12 0
3.58802e-12 1.33324e-11 0
0 0 0

4.35789e-11 -2.04334e-12 0
-2.04334e-12 1.20296e-10 0
0 0 0

-1.28857e-11 -1.06134e-11 0
-1.06134e-11 -3.66697e-11 0
0 0 0

4.36217e-11 -2.26714e-12 0
-2.26714e-12 1.20396e-10 0
0 0 0

-1.24246e-11 -4.92538e-12 0
-4.92538e-12 -3.55936e-11 0
0 0 0

-4.47386e-11 3.26771e-12 0
3.26771e-12 -1.31498e-10 0
0 0 0

1.54991e-11 9.21212e-12 0
9.21212e-12 3.69692e-11 0
0 0 0

-4.15953e-11 1.4312e-12 0
1.4312e-12 -1.24164e-10 0
0 0 0

1.34606e-11 5.05869e-12 0
5.05869e-12 3.22129e-11 0
0 0 0

3.98139e-11 1.28871e-12 0
1.28871e-12 1.17605e-10 0
0 0 0

-2.91602e-11 -5.60934e-12 0
-5.60934e-12 -6.1649e-11 0
0 0 0

4.03968e-11 4.65918e-13 0
4.65918e-13 1.18965e-10 0
0 0 0

-2.86782e-11 -1.20847e-12 0
-1.20847e-12 -6.05244e-11 0
0 0 0

-3.59283e-11 -5.00628e-12 0
-5.00628e-12 -1.04141e-10 0
0 0 0

1.06271e-11 -2.99245e-13 0
-2.99245e-13 1.46044e-11 0
0 0 0

-2.10148e-11 -5.85736e-12 0
-5.85736e-12 -6.93427e-11 0
0 0 0

1.11924e-11 -1.98163e-12 0
-1.98163e-12 1.59234e-11 0
0 0 0

5.50174e-11 -2.76898e-12 0
-2.76898e-12 1.26358e-10 0
0 0 0

-1.43246e-11 -3.65886e-12 0
-3.65886e-12 -3.78201e-11 0
0 0 0

5.64085e-11 -2.37992e-12 0
-2.37992e-12 1.29604e-10 0
0 0 0

-1.07681e-11 -2.36542e-12 0
-2.36542e-12 -2.95217e-11 0
0 0 0

-5.43507e-11 -7.48462e-13 0
-7.48462e-13 -1.33175e-10 0
0 0 0

1.5526e-11 -1.18114e-13 0
-1.18114e-13 3.70113e-11 0
0 0 0

-5.28407e-11 -1.07646e-12 0
-1.07646e-12 -1.29651e-10 0
0 0 0

1.44259e-11 -6.56143e-13 0
-6.56143e-13 3.44444e-11 0
0 0 0

4.84052e-11 -3.79162e-13 0
-3.79162e-13 1.20915e-10 0
0 0 0

-3.16005e-11 -1.05928e-12 0
-1.05928e-12 -6.40521e-11 0
0 0 0

5.0245e-11 2.46934e-13 0
2.46934e-13 1.25208e-10 0
0 0 0

-3.05661e-11 -9.22655e-13 0
-9.22655e-13 -6.16385e-11 0
0 0 0

-1.89189e-11 -2.96628e-12 0
-2.96628e-12 -5.11498e-11 0
0 0 0

7.31188e-12 -1.61062e-12 0
-1.61062e-12 1.48825e-11 0
0 0 0

-2.14861e-11 -1.19908e-12 0
-1.19908e-12 -5.71401e-11 0
0 0 0

5.88034e-12 -2.89371e-12 0
-2.89371e-12 1.15422e-11 0
0 0 0

5.49662e-11 -4.60179e-13 0
-4.60179e-13 1.30201e-10 0
0 0 0

-1.19221e-11 -8.77679e-13 0
-8.77679e-13 -3.13126e-11 0
0 0 0

5.55803e-11 1.43432e-13 0
1.43432e-13 1.31634e-10 0
0 0 0

-1.09662e-11 9.60233e-13 0
9.60233e-13 -2.9082e-11 0
0 0 0

-5.24384e-11 -5.21577e-13 0
-5.21577e-13 -1.30162e-10 0
0 0 0

1.44173e-11 -2.19881e-12 0
-2.19881e-12 3.28547e-11 0
0 0 0

-5.58444e-11 -8.23873e-13 0
-8.23873e-13 -1.38109e-10 0
0 0 0

1.64253e-11 -2.53527e-12 0
-2.53527e-12 3.754e-11 0
0 0 0

4.78778e-11 -1.45174e-13 0
-1.45174e-13 1.19228e-10 0
0 0 0

-3.27055e-11 -6.44478e-13 0
-6.44478e-13 -6.41688e-11 0
0 0 0

4.97465e-11 -4.43128e-13 0
-4.43128e-13 1.23589e-10 0
0 0 0

-3.11538e-11 -1.31879e-13 0
-1.31879e-13 -6.05483e-11 0
0 0 0

-1.18159e-11 -1.62907e-12 0
-1.62907e-12 -5.18169e-11 0
0 0 0

3.48994e-12 -4.01298e-12 0
-4.01298e-12 1.30158e-11 0
0 0 0

-1.4201e-11 -5.94479e-12 0
-5.94479e-12 -5.73821e-11 0
0 0 0

5.00347e-13 -7.94788e-12 0
-7.94788e-12 6.04006e-12 0
0 0 0

4.2636e-11 6.79281e-13 0
6.79281e-13 1.24024e-10 0
0 0 0

-1.16769e-11 3.45507e-12 0
3.45507e-12 -3.13905e-11 0
0 0 0

4.38401e-11 2.4001e-12 0
2.4001e-12 1.26834e-10 0
0 0 0

-1.11437e-11 8.85931e-12 0
8.85931e-12 -3.01463e-11 0
0 0 0

-4.28941e-11 -2.29339e-12 0
-2.29339e-12 -1.27292e-10 0
0 0 0

1.51184e-11 -5.14326e-12 0
-5.14326e-12 3.42562e-11 0
0 0 0

-4.11647e-11 -3.40465e-12 0
-3.40465e-12 -1.23257e-10 0
0 0 0

1.78486e-11 -8.66169e-12 0
-8.66169e-12 4.06267e-11 0
0 0 0

4.01201e-11 6.66042e-13 0
6.66042e-13 1.16228e-10 0
0 0 0

-2.92886e-11 1.88499e-12 0
1.88499e-12 -6.10361e-11 0
0 0 0

3.88639e-11 -1.64929e-14 0
-1.64929e-14 1.13297e-10 0
0 0 0

-2.84591e-11 5.71037e-12 0
5.71037e-12 -5.91006e-11 0
0 0 0

TENSORS velocity_gradient double
2.23693e-14 9.30278e-15 0
-1.92069e-14 -1.04472e-13 0
0 0 0

6.02059e-15 3.99432e-14 0
-8.88178e-15 -3.73035e-14 0
0 0 0

2.23693e-14 6.11255e-15 0
-2.13163e-14 -5.68434e-14 0
0 0 0

6.02059e-15 1.92084e-14 0
-1.06581e-14 -3.90799e-14 0
0 0 0

-1.00417e-14 3.55122e-15 0
-5.77316e-15 7.59393e-14 0
0 0 0

1.96601e-15 -3.29312e-14 0
-1.24345e-14 1.24345e-14 0
0 0 0

-1.00417e-14 1.50653e-15 0
-1.19904e-14 6.9722e-14 0
0 0 0

1.96601e-15 -1.62393e-14 0
-1.06581e-14 3.55271e-15 0
0 0 0

1.4432e-14 1.89253e-15 0
-3.55271e-15 -8.88178e-14 0
0 0 0

1.51172e-15 3.68027e-14 0
-7.10543e-15 -1.42109e-14 0
0 0 0

1.4432e-14 1.68112e-15 0
-7.54952e-15 -8.21565e-14 0
0 0 0

1.51172e-15 1.96461e-14 0
-7.10543e-15 -1.77636e-14 0
0 0 0

-1.16676e-14 7.38969e-15 0
-5.21805e-15 6.93889e-14 0
0 0 0

-9.53832e-16 -2.20963e-14 0
-7.10543e-15 -3.90799e-14 0
0 0 0

-1.16676e-14 6.1421e-15 0
-7.99361e-15 6.30607e-14 0
0 0 0

-9.53832e-16 -7.39539e-15 0
-8.88178e-15 -4.08562e-14 0
0 0 0

1.03149e-14 7.60118e-16 0
-2.18714e-14 -2.18714e-14 0
0 0 0

3.68695e-15 5.67481e-15 0
-8.88178e-15 -3.73035e-14 0
0 0 0

1.03149e-14 -6.75452e-15 0
-1.9984e-14 -5.77316e-15 0
0 0 0

3.68695e-15 -6.57557e-16 0
-1.24345e-14 -3.73035e-14 0
0 0 0

-1.37848e-15 -1.48127e-16 0
-4.55191e-15 7.71605e-14 0
0 0 0

1.16715e-15 -5.98552e-15 0
-6.21725e-15 1.5099e-14 0
0 0 0

-1.37848e-15 -1.41274e-15 0
-3.9968e-15 7.77156e-14 0
0 0 0

1.16715e-15 -2.1698e-15 0
-3.55271e-15 1.42109e-14 0
0 0 0

3.86839e-15 1.25432e-15 0
-2.44249e-15 -8.77076e-14 0
0 0 0

-1.25548e-16 8.51215e-15 0
0 -7.10543e-15 0
0 0 0

3.86839e-15 6.12125e-16 0
6.66134e-15 -7.14984e-14 0
0 0 0

-1.25548e-16 3.40096e-15 0
-1.77636e-15 -5.32907e-15 0
0 0 0

-4.49016e-15 4.45585e-15 0
2.9976e-15 6.69464e-14 0
0 0 0

-4.36979e-15 3.89481e-16 0
0 -4.26326e-14 0
0 0 0

-4.49016e-15 2.33095e-15 0
-4.44089e-16 8.12683e-14 0
0 0 0

-4.36979e-15 1.25828e-15 0
-1.77636e-15 -3.37508e-14 0
0 0 0

-1.39707e-15 -9.32099e-15 0
-3.88578e-15 3.21965e-15 0
0 0 0

-3.00326e-15 -5.29148e-15 0
8.88178e-16 -3.10862e-14 0
0 0 0

-1.39707e-15 -6.93927e-15 0
-8.88178e-16 2.66454e-15 0
0 0 0

-3.00326e-15 -8.22697e-15 0
-3.55271e-15 -4.26326e-14 0
0 0 0

-4.87864e-15 -1.39258e-15 0
-2.22045e-15 8.30447e-14 0
0 0 0

-3.85498e-16 2.516e-15 0
4.44089e-15 2.57572e-14 0
0 0 0

-4.87864e-15 -8.7651e-17 0
1.77636e-15 7.63833e-14 0
0 0 0

-3.85498e-16 8.07188e-15 0
1.77636e-15 1.59872e-14 0
0 0 0

3.84095e-15 4.10086e-16 0
4.996e-15 -8.38218e-14 0
0 0 0

8.08427e-17 -1.70105e-15 0
0 -3.55271e-15 0
0 0 0

3.84095e-15 6.48208e-16 0
3.9968e-15 -8.4821e-14 0
0 0 0

8.08427e-17 -6.7939e-15 0
0 0 0
0 0 0

-4.33987e-15 6.63455e-17 0
-4.44089e-16 6.70575e-14 0
0 0 0

-4.72277e-15 1.83813e-15 0
-8.88178e-16 -3.28626e-14 0
0 0 0

-4.33987e-15 -2.33796e-15 0
5.77316e-15 7.68274e-14 0
0 0 0

-4.72277e-15 2.12904e-15 0
-1.77636e-15 -3.73035e-14 0
0 0 0

5.35439e-15 -9.76278e-15 0
1.11022e-15 -5.9952e-15 0
0 0 0

-6.10368e-15 -1.59953e-14 0
-6.21725e-15 -3.4639e-14 0
0 0 0

5.35439e-15 -1.77915e-14 0
6.66134e-15 -1.46549e-14 0
0 0 0

-6.10368e-15 -2.85965e-14 0
-3.55271e-15 -4.9738e-14 0
0 0 0

-1.48961e-14 1.8817e-15 0
-5.66214e-15 7.9603e-14 0
0 0 0

-8.07774e-16 1.98031e-14 0
-7.99361e-15 2.04281e-14 0
0 0 0

-1.48961e-14 4.51547e-15 0
-4.44089e-15 8.08242e-14 0
0 0 0

-8.07774e-16 3.77096e-14 0
-5.32907e-15 1.24345e-14 0
0 0 0

1.28338e-14 1.19058e-15 0
-9.65894e-15 -8.07132e-14 0
0 0 0

8.53695e-16 -1.74682e-14 0
-6.21725e-15 -9.76996e-15 0
0 0 0

1.28338e-14 2.0372e-15 0
-5.32907e-15 -7.99361e-14 0
0 0 0

8.53695e-16 -3.37238e-14 0
-7.10543e-15 0 0
0 0 0

-1.15961e-14 -4.0562e-15 0
-7.77156e-16 7.02771e-14 0
0 0 0

-1.1823e-15 9.38905e-15 0
-1.77636e-15 -2.30926e-14 0
0 0 0

-1.15961e-14 -5.08838e-15 0
2.66454e-15 8.08242e-14 0
0 0 0

-1.1823e-15 2.36182e-14 0
-3.55271e-15 -2.84217e-14 0
0 0 0

SCALARS active double 1
LOOKUP_TABLE default
1
1
1
1
1
1
1
1
1
1
1
1
1
1
1
1
1
1
1
1
1
1
1
1
1
1
1
1
1
1
1
1
1
1
1
1
1
1
1
1
1
1
1
1
1
1
1
1
1
1
1
1
1
1
1
1
1
1
1
1
1
1
1
1
SCALARS extent double 1
LOOKUP_TABLE default
0.0125
0.0125
0.0125
0.0125
0.0125
0.0125
0.0125
0.0125
0.0125
0.0125
0.0125
0.0125
0.0125
0.0125
0.0125
0.0125
0.0125
0.0125
0.0125
0.0125
0.0125
0.0125
0.0125
0.0125
0.0125
0.0125
0.0125
0.0125
0.0125
0.0125
0.0125
0.0125
0.0125
0.0125
0.0125
0.0125
0.0125
0.0125
0.0125
0.0125
0.0125
0.0125
0.0125
0.0125
0.0125
0.0125
0.0125
0.0125
0.0125
0.0125
0.0125
0.0125
0.0125
0.0125
0.0125
0.0125
0.0125
0.0125
0.0125
0.0125
0.0125
0.0125
0.0125
0.0125
SCALARS pressure double 1
LOOKUP_TABLE default
7.97768e-11
-1.08401e-11
7.54854e-11
-1.1937e-11
-8.19377e-11
2.47777e-11
-8.2009e-11
2.40091e-11
8.81185e-11
-2.62341e-11
8.28796e-11
-2.28368e-11
-7.87097e-11
4.54046e-11
-7.96811e-11
4.46013e-11
7.00347e-11
-1.26158e-11
4.51787e-11
-1.35579e-11
-9.06875e-11
2.60723e-11
-9.3006e-11
2.01449e-11
9.37627e-11
-2.62686e-11
9.1246e-11
-2.44352e-11
-8.46602e-11
4.78263e-11
-8.77267e-11
4.61023e-11
3.50343e-11
-1.10972e-11
3.93131e-11
-8.71128e-12
-9.25835e-11
2.16174e-11
-9.3607e-11
2.00241e-11
9.13003e-11
-2.3636e-11
9.69769e-11
-2.69827e-11
-8.3553e-11
4.84371e-11
-8.66675e-11
4.58511e-11
3.18164e-11
-8.25286e-12
3.57916e-11
-3.2702e-12
-8.33302e-11
2.15337e-11
-8.53371e-11
2.0645e-11
8.50929e-11
-2.46873e-11
8.22106e-11
-2.92376e-11
-7.81743e-11
4.51623e-11
-7.60806e-11
4.37799e-11
SCALARS density double 1
LOOKUP_TABLE default
1000
1000
1000
1000
1000
1000
1000
1000
1000
1000
1000
1000
1000
1000
1000
1000
1000
1000
1000
1000
1000
1000
1000
1000
1000
1000
1000
1000
1000
1000
1000
1000
1000
1000
1000
1000
1000
1000
1000
1000
1000
1000
1000
1000
1000
1000
1000
1000
1000
1000
1000
1000
1000
1000
1000
1000
1000
1000
1000
1000
1000
1000
1000
1000
