# vtk DataFile Version 3.0
Frame: 33, Time: 0.567
ASCII
DATASET UNSTRUCTURED_GRID
POINTS 64 double
0.957267 0.320093 0 
0.951017 0.293277 0 
0.931417 0.325238 0 
0.923973 0.300203 0 
0.941007 0.268994 0 
0.928694 0.243715 0 
0.915126 0.278181 0 
0.90371 0.255326 0 
0.915504 0.221128 0 
0.90168 0.199479 0 
0.891943 0.233498 0 
0.87992 0.211107 0 
0.891267 0.174932 0 
0.880451 0.152047 0 
0.869005 0.187008 0 
0.856835 0.163178 0 
0.909134 0.334411 0 
0.899931 0.311903 0 
0.888197 0.346349 0 
0.875546 0.322162 0 
0.891344 0.290067 0 
0.880166 0.267962 0 
0.866206 0.299815 0 
0.855551 0.276513 0 
0.868151 0.245044 0 
0.857065 0.221987 0 
0.844128 0.253294 0 
0.832712 0.230348 0 
0.847007 0.197496 0 
0.834304 0.174217 0 
0.823552 0.207082 0 
0.812223 0.183875 0 
0.865912 0.356554 0 
0.851343 0.33426 0 
0.841737 0.366977 0 
0.828488 0.34459 0 
0.842332 0.310494 0 
0.831588 0.286855 0 
0.817322 0.320396 0 
0.807213 0.296473 0 
0.820153 0.264161 0 
0.808675 0.240607 0 
0.796015 0.273473 0 
0.785223 0.249947 0 
0.798764 0.21702 0 
0.789576 0.192916 0 
0.774308 0.226584 0 
0.765612 0.20188 0 
0.817119 0.375729 0 
0.805642 0.353227 0 
0.794142 0.388234 0 
0.782445 0.364333 0 
0.793988 0.32879 0 
0.78245 0.304609 0 
0.7719 0.339686 0 
0.759291 0.316777 0 
0.771466 0.280568 0 
0.760302 0.256316 0 
0.747821 0.293575 0 
0.736707 0.268443 0 
0.749648 0.231525 0 
0.740951 0.20669 0 
0.726039 0.242898 0 
0.717491 0.217497 0 
CELLS 64 128
1 0
1 1
1 2
1 3
1 4
1 5
1 6
1 7
1 8
1 9
1 10
1 11
1 12
1 13
1 14
1 15
1 16
1 17
1 18
1 19
1 20
1 21
1 22
1 23
1 24
1 25
1 26
1 27
1 28
1 29
1 30
1 31
1 32
1 33
1 34
1 35
1 36
1 37
1 38
1 39
1 40
1 41
1 42
1 43
1 44
1 45
1 46
1 47
1 48
1 49
1 50
1 51
1 52
1 53
1 54
1 55
1 56
1 57
1 58
1 59
1 60
1 61
1 62
1 63
CELL_TYPES 64
1
1
1
1
1
1
1
1
1
1
1
1
1
1
1
1
1
1
1
1
1
1
1
1
1
1
1
1
1
1
1
1
1
1
1
1
1
1
1
1
1
1
1
1
1
1
1
1
1
1
1
1
1
1
1
1
1
1
1
1
1
1
1
1
POINT_DATA 64
VECTORS displacement double
0.444767 -0.292407 0 
0.438517 -0.344223 0 
0.393917 -0.287262 0 
0.386473 -0.337297 0 
0.428507 -0.393506 0 
0.416194 -0.443785 0 
0.377626 -0.384319 0 
0.36621 -0.432174 0 
0.403004 -0.491372 0 
0.38918 -0.538021 0 
0.354443 -0.479002 0 
0.34242 -0.526393 0 
0.378767 -0.587568 0 
0.367951 -0.635453 0 
0.331505 -0.575492 0 
0.319335 -0.624322 0 
0.346634 -0.278089 0 
0.337431 -0.325597 0 
0.300697 -0.266151 0 
0.288046 -0.315338 0 
0.328844 -0.372433 0 
0.317666 -0.419538 0 
0.278706 -0.362685 0 
0.268051 -0.410987 0 
0.305651 -0.467456 0 
0.294565 -0.515513 0 
0.256628 -0.459206 0 
0.245212 -0.507152 0 
0.284507 -0.565004 0 
0.271804 -0.613283 0 
0.236052 -0.555418 0 
0.224723 -0.603625 0 
0.253412 -0.255946 0 
0.238843 -0.30324 0 
0.204237 -0.245523 0 
0.190988 -0.29291 0 
0.229832 -0.352006 0 
0.219088 -0.400645 0 
0.179822 -0.342104 0 
0.169713 -0.391027 0 
0.207653 -0.448339 0 
0.196175 -0.496893 0 
0.158515 -0.439027 0 
0.147723 -0.487553 0 
0.186264 -0.54548 0 
0.177076 -0.594584 0 
0.136808 -0.535916 0 
0.128112 -0.58562 0 
0.154619 -0.236771 0 
0.143142 -0.284273 0 
0.106642 -0.224266 0 
0.0949454 -0.273167 0 
0.131488 -0.33371 0 
0.11995 -0.382891 0 
0.0843999 -0.322814 0 
0.0717914 -0.370723 0 
0.108966 -0.431932 0 
0.0978019 -0.481184 0 
0.0603214 -0.418925 0 
0.0492069 -0.469057 0 
0.0871475 -0.530975 0 
0.078451 -0.58081 0 
0.0385393 -0.519602 0 
0.0299908 -0.570003 0 
VECTORS velocity double
-0.211996 -1.96124 0 
-0.855361 -0.956134 0 
-1.32053 0.152431 0 
-1.82674 0.465078 0 
-1.91949 -0.349369 0 
-2.74751 -0.316894 0 
-2.12012 0.763765 0 
-2.22561 0.0279848 0 
-2.38128 -0.112509 0 
-2.33043 -0.993588 0 
-1.8687 -0.0294198 0 
-1.86763 -0.482145 0 
-1.3216 -1.21143 0 
-1.61952 -0.746786 0 
-1.64973 -0.412142 0 
-1.41649 -0.652719 0 
-0.996464 -0.521306 0 
-1.41207 -0.384938 0 
-0.855771 0.311403 0 
-1.88177 0.242112 0 
-0.95149 0.181472 0 
-0.694537 -0.70194 0 
-1.47075 0.128379 0 
-1.3248 -0.405901 0 
-1.02452 -0.609098 0 
-1.32977 -0.547045 0 
-1.91975 -0.499005 0 
-1.90995 -0.685253 0 
-1.81278 -0.909015 0 
-1.72539 -1.45036 0 
-1.9497 -0.692284 0 
-2.29717 -0.760445 0 
-1.38329 -0.174484 0 
-1.42282 0.0955446 0 
-2.1659 -0.195688 0 
-1.45306 -0.424811 0 
-1.02264 -0.392376 0 
-1.24577 -0.660184 0 
-0.752128 -0.476728 0 
-1.32137 -0.571582 0 
-1.58307 -0.607055 0 
-1.55554 -0.416314 0 
-2.02542 -1.06408 0 
-2.04645 -0.451122 0 
-1.61806 -0.450269 0 
-1.14164 -0.868962 0 
-1.93526 -0.13019 0 
-0.819804 -1.09095 0 
-2.03392 -0.303153 0 
-1.96996 -0.929227 0 
-1.67912 -0.693503 0 
-1.65724 -0.183972 0 
-1.09201 -1.04197 0 
-1.28798 -0.847107 0 
-0.99569 -0.263673 0 
-1.18842 0.0327726 0 
-1.47877 -0.686827 0 
-2.04347 -0.784439 0 
-1.1187 -0.107392 0 
-1.63838 -0.773633 0 
-1.86789 -0.782486 0 
-1.27886 -0.886443 0 
-1.51574 -0.897196 0 
-1.20008 -1.1088 0 
SCALARS mass double 1
LOOKUP_TABLE default
0.625
0.625
0.625
0.625
0.625
0.625
0.625
0.625
0.625
0.625
0.625
0.625
0.625
0.625
0.625
0.625
0.625
0.625
0.625
0.625
0.625
0.625
0.625
0.625
0.625
0.625
0.625
0.625
0.625
0.625
0.625
0.625
0.625
0.625
0.625
0.625
0.625
0.625
0.625
0.625
0.625
0.625
0.625
0.625
0.625
0.625
0.625
0.625
0.625
0.625
0.625
0.625
0.625
0.625
0.625
0.625
0.625
0.625
0.625
0.625
0.625
0.625
0.625
0.625
SCALARS volume double 1
LOOKUP_TABLE default
0.000613175
0.000656608
0.00063685
0.000643084
0.000687298
0.000692463
0.000607535
0.000627425
0.000632502
0.000584609
0.000636755
0.000621692
0.000632214
0.000630111
0.000636808
0.000602986
0.000573742
0.0006078
0.000612917
0.000644902
0.000617263
0.000645895
0.000641262
0.000615304
0.000623996
0.000616728
0.000638745
0.000655534
0.000609607
0.000620063
0.000616918
0.000606759
0.000649416
0.000637392
0.000630237
0.000626151
0.00064163
0.000642978
0.000650911
0.000660851
0.000645455
0.000632318
0.000656644
0.000609302
0.000666227
0.000599605
0.000616996
0.000623317
0.000626702
0.000615904
0.00062568
0.00063547
0.000608813
0.000641015
0.000645661
0.000654001
0.000642685
0.000651964
0.00065506
0.000671075
0.000618826
0.000660539
0.000619141
0.000633666
VECTORS momentum double
-0.132497 -1.22578 0 
-0.5346 -0.597584 0 
-0.825331 0.0952692 0 
-1.14171 0.290674 0 
-1.19968 -0.218356 0 
-1.71719 -0.198059 0 
-1.32507 0.477353 0 
-1.39101 0.0174905 0 
-1.4883 -0.0703181 0 
-1.45652 -0.620993 0 
-1.16794 -0.0183874 0 
-1.16727 -0.301341 0 
-0.826001 -0.757144 0 
-1.0122 -0.466741 0 
-1.03108 -0.257589 0 
-0.885306 -0.407949 0 
-0.62279 -0.325816 0 
-0.882544 -0.240587 0 
-0.534857 0.194627 0 
-1.1761 0.15132 0 
-0.594681 0.11342 0 
-0.434085 -0.438713 0 
-0.919217 0.080237 0 
-0.828001 -0.253688 0 
-0.640327 -0.380686 0 
-0.831104 -0.341903 0 
-1.19984 -0.311878 0 
-1.19372 -0.428283 0 
-1.13299 -0.568135 0 
-1.07837 -0.906476 0 
-1.21856 -0.432677 0 
-1.43573 -0.475278 0 
-0.864557 -0.109052 0 
-0.889264 0.0597154 0 
-1.35369 -0.122305 0 
-0.908164 -0.265507 0 
-0.63915 -0.245235 0 
-0.778607 -0.412615 0 
-0.47008 -0.297955 0 
-0.825859 -0.357239 0 
-0.98942 -0.379409 0 
-0.972214 -0.260196 0 
-1.26589 -0.665052 0 
-1.27903 -0.281951 0 
-1.01129 -0.281418 0 
-0.713525 -0.543101 0 
-1.20954 -0.0813689 0 
-0.512377 -0.681845 0 
-1.2712 -0.18947 0 
-1.23123 -0.580767 0 
-1.04945 -0.43344 0 
-1.03578 -0.114982 0 
-0.682508 -0.651231 0 
-0.804986 -0.529442 0 
-0.622306 -0.164796 0 
-0.74276 0.0204829 0 
-0.924229 -0.429267 0 
-1.27717 -0.490275 0 
-0.699187 -0.0671201 0 
-1.02399 -0.483521 0 
-1.16743 -0.489054 0 
-0.799287 -0.554027 0 
-0.947338 -0.560747 0 
-0.750048 -0.692998 0 
VECTORS body_force double
0 -9.81 0 
0 -9.81 0 
0 -9.81 0 
0 -9.81 0 
0 -9.81 0 
0 -9.81 0 
0 -9.81 0 
0 -9.81 0 
0 -9.81 0 
0 -9.81 0 
0 -9.81 0 
0 -9.81 0 
0 -9.81 0 
0 -9.81 0 
0 -9.81 0 
0 -9.81 0 
0 -9.81 0 
0 -9.81 0 
0 -9.81 0 
0 -9.81 0 
0 -9.81 0 
0 -9.81 0 
0 -9.81 0 
0 -9.81 0 
0 -9.81 0 
0 -9.81 0 
0 -9.81 0 
0 -9.81 0 
0 -9.81 0 
0 -9.81 0 
0 -9.81 0 
0 -9.81 0 
0 -9.81 0 
0 -9.81 0 
0 -9.81 0 
0 -9.81 0 
0 -9.81 0 
0 -9.81 0 
0 -9.81 0 
0 -9.81 0 
0 -9.81 0 
0 -9.81 0 
0 -9.81 0 
0 -9.81 0 
0 -9.81 0 
0 -9.81 0 
0 -9.81 0 
0 -9.81 0 
0 -9.81 0 
0 -9.81 0 
0 -9.81 0 
0 -9.81 0 
0 -9.81 0 
0 -9.81 0 
0 -9.81 0 
0 -9.81 0 
0 -9.81 0 
0 -9.81 0 
0 -9.81 0 
0 -9.81 0 
0 -9.81 0 
0 -9.81 0 
0 -9.81 0 
0 -9.81 0 
TENSORS cauchy_stress double
-7747.2 678.084 0
678.084 4073.78 0
0 0 0

4597.38 4039.14 0
4039.14 4890.22 0
0 0 0

-1245.47 -382.481 0
-382.481 4857.58 0
0 0 0

6038.51 -2762.48 0
-2762.48 -553.09 0
0 0 0

13321.7 4573.07 0
4573.07 4950.67 0
0 0 0

10975 2292.67 0
2292.67 8737.26 0
0 0 0

-2163.29 -4423.29 0
-4423.29 -3286.95 0
0 0 0

-1396.43 -3391.16 0
-3391.16 2141.18 0
0 0 0

5793.42 3931.93 0
3931.93 -3498.71 0
0 0 0

-6678.33 947.694 0
947.694 -6169.46 0
0 0 0

1813.22 -2888.24 0
-2888.24 1770.15 0
0 0 0

-844.876 486.002 0
486.002 -175.797 0
0 0 0

-1613.27 -1210.12 0
-1210.12 3820.22 0
0 0 0

657.499 -852.653 0
-852.653 908.619 0
0 0 0

282.714 881.625 0
881.625 3316.69 0
0 0 0

-4727.73 -229.805 0
-229.805 -2167.86 0
0 0 0

-10765.2 -4641.13 0
-4641.13 -5691.1 0
0 0 0

-3951.57 -7516.73 0
-7516.73 -1415.05 0
0 0 0

-5013.87 4782.37 0
4782.37 1259.49 0
0 0 0

5173.74 -3618.75 0
-3618.75 854.518 0
0 0 0

4110.47 -2658.09 0
-2658.09 -6506.07 0
0 0 0

8873.03 365.802 0
365.802 -2548.91 0
0 0 0

6553.42 4412.56 0
4412.56 -1613.64 0
0 0 0

1377.42 1521.72 0
1521.72 -4384.22 0
0 0 0

3718.12 6182.72 0
6182.72 -4027.43 0
0 0 0

1156.22 4750.42 0
4750.42 -3718.47 0
0 0 0

4916.8 1497.4 0
1497.4 -733.349 0
0 0 0

6244.16 251.006 0
251.006 2928.58 0
0 0 0

-4981.83 3273.95 0
3273.95 186.265 0
0 0 0

-1323.95 1965.04 0
1965.04 -201.249 0
0 0 0

-212.915 -1707.29 0
-1707.29 -2290.22 0
0 0 0

-4948.45 6237.99 0
6237.99 -747.644 0
0 0 0

5486.94 866.236 0
866.236 1882.57 0
0 0 0

2488.33 1476.98 0
1476.98 1287.34 0
0 0 0

2777.07 2509.61 0
2509.61 -1172.41 0
0 0 0

-434.839 4698.2 0
4698.2 788.566 0
0 0 0

-131.053 -4129.51 0
-4129.51 5181.13 0
0 0 0

1804.29 1038.29 0
1038.29 3649.3 0
0 0 0

5005.54 -4.00664 0
-4.00664 2806.34 0
0 0 0

12273.9 872.644 0
872.644 -1547.47 0
0 0 0

3169.81 -261.533 0
-261.533 3023.2 0
0 0 0

2800.75 3067.97 0
3067.97 -562.04 0
0 0 0

10049 7586.49 0
7586.49 -550.903 0
0 0 0

4637.81 4701.72 0
4701.72 -9529.75 0
0 0 0

8931.39 -1460.14 0
-1460.14 3353.11 0
0 0 0

-5325.66 1841.31 0
1841.31 -2651.43 0
0 0 0

-2790.77 883.352 0
883.352 312.046 0
0 0 0

-2502.11 800.357 0
800.357 1983.67 0
0 0 0

2978.7 -1721.23 0
-1721.23 -2455.67 0
0 0 0

-184.132 2035.37 0
2035.37 -2635.16 0
0 0 0

-2696.61 1213.19 0
1213.19 2905.85 0
0 0 0

-605.99 -579.765 0
-579.765 3800.88 0
0 0 0

-4381.77 4026.1 0
4026.1 -664.354 0
0 0 0

3649.82 2858.71 0
2858.71 1215.92 0
0 0 0

414.973 1574.44 0
1574.44 5839.54 0
0 0 0

5324.39 -241.934 0
-241.934 3398.23 0
0 0 0

2213.22 1038.76 0
1038.76 3152.85 0
0 0 0

2424.78 4105.36 0
4105.36 5697.94 0
0 0 0

6649.86 9.72783 0
9.72783 2383.8 0
0 0 0

2790.39 2734.17 0
2734.17 10888.3 0
0 0 0

-737.617 2328.83 0
2328.83 -1171.37 0
0 0 0

3764.48 -1013.69 0
-1013.69 6871.06 0
0 0 0

-2691.3 742.015 0
742.015 880.128 0
0 0 0

-1092.51 -2673.68 0
-2673.68 3740.56 0
0 0 0

TENSORS velocity_gradient double
20.2463 8.89502 0
-27.4767 -5.99747 0
0 0 0

19.4112 19.6479 0
-20.1944 -7.08863 0
0 0 0

6.81241 8.75111 0
-12.9248 -4.39107 0
0 0 0

3.54226 11.0779 0
-10.5075 -2.46848 0
0 0 0

-5.34903 20.0378 0
-4.13886 -4.75972 0
0 0 0

-11.0299 1.29056 0
0.999932 4.39305 0
0 0 0

-2.56692 12.0234 0
-6.12789 0.970019 0
0 0 0

-9.1715 8.26776 0
-0.689137 3.65338 0
0 0 0

-10.3219 1.50316 0
4.40161 6.50454 0
0 0 0

-7.57609 -3.14326 0
4.52763 7.55641 0
0 0 0

-4.36325 2.36916 0
5.19272 8.57866 0
0 0 0

-3.34424 2.92139 0
3.14452 7.4687 0
0 0 0

-0.742799 -6.63815 0
1.68272 3.44609 0
0 0 0

0.973814 -2.87148 0
1.3566 1.22823 0
0 0 0

-1.76731 -4.75294 0
1.87125 3.09919 0
0 0 0

0.24659 -3.71117 0
1.50066 2.90749 0
0 0 0

7.7629 6.38385 0
-13.636 -2.61972 0
0 0 0

3.01011 5.20192 0
-5.14094 -1.9797 0
0 0 0

5.9697 0.286429 0
3.3046 -1.79784 0
0 0 0

1.47495 0.780629 0
4.51843 -0.700858 0
0 0 0

-3.30904 6.56311 0
5.79398 4.80322 0
0 0 0

-4.29061 6.06706 0
6.27997 5.04882 0
0 0 0

-2.40018 2.20968 0
5.49679 2.56314 0
0 0 0

-3.90311 4.95861 0
6.08811 5.59763 0
0 0 0

-4.81839 3.7537 0
6.16589 6.22148 0
0 0 0

-3.84511 3.97768 0
4.15126 5.34556 0
0 0 0

2.54491 4.78565 0
3.02097 4.82609 0
0 0 0

2.02011 2.44371 0
0.676874 3.67905 0
0 0 0

-1.78176 -0.519585 0
0.507297 3.61018 0
0 0 0

-0.0970333 -2.02778 0
0.716402 3.75268 0
0 0 0

-0.849163 1.31633 0
-0.594989 3.17931 0
0 0 0

-0.758832 -0.509405 0
0.0458222 5.2912 0
0 0 0

7.10855 -11.2354 0
2.54619 -1.47048 0
0 0 0

2.78436 -3.53783 0
4.96826 0.43705 0
0 0 0

-2.73167 -10.9393 0
6.83366 0.277565 0
0 0 0

-0.339197 -4.42881 0
7.20493 1.34518 0
0 0 0

0.637034 -4.29527 0
8.67238 0.85084 0
0 0 0

1.8014 5.82095 0
7.25625 3.22481 0
0 0 0

0.367684 -3.62956 0
8.23227 1.93859 0
0 0 0

1.19629 4.60358 0
8.38962 0.345836 0
0 0 0

3.35916 6.59824 0
3.90483 1.55253 0
0 0 0

3.28864 -0.524071 0
1.23918 2.36352 0
0 0 0

0.364538 7.90305 0
-0.065438 -0.77173 0
0 0 0

-1.24206 2.90548 0
0.608368 1.11193 0
0 0 0

-1.779 -1.68654 0
0.938778 2.07534 0
0 0 0

-6.88232 -0.723017 0
2.28438 5.72001 0
0 0 0

-3.29478 -4.2335 0
1.75749 2.60025 0
0 0 0

-5.83284 -4.77857 0
2.412 3.28358 0
0 0 0

-3.93365 -7.62084 0
6.76661 0.462655 0
0 0 0

-1.0487 -5.50145 0
6.98039 0.930452 0
0 0 0

-0.350932 -5.9859 0
-0.80805 0.0398876 0
0 0 0

-2.79049 -7.42864 0
-4.87688 -1.11012 0
0 0 0

-2.61387 -2.64686 0
-4.42842 2.75968 0
0 0 0

-0.837976 -0.818085 0
-6.04975 2.68699 0
0 0 0

-4.03492 -0.63784 0
-6.38563 2.95762 0
0 0 0

-1.89879 0.5409 0
-6.2116 3.05365 0
0 0 0

-0.564041 7.71313 0
-3.41161 2.16037 0
0 0 0

-0.906417 7.55768 0
0.0141304 3.71583 0
0 0 0

-4.37708 7.5025 0
2.09053 4.85114 0
0 0 0

-6.00348 8.03833 0
6.72785 4.95066 0
0 0 0

-3.24216 -6.32331 0
3.11147 3.256 0
0 0 0

-2.45536 -6.39706 0
4.51266 3.20219 0
0 0 0

-4.58357 -5.5295 0
5.76953 2.68982 0
0 0 0

-3.09584 -5.01681 0
4.89091 2.38704 0
0 0 0

SCALARS active double 1
LOOKUP_TABLE default
1
1
1
1
1
1
1
1
1
1
1
1
1
1
1
1
1
1
1
1
1
1
1
1
1
1
1
1
1
1
1
1
1
1
1
1
1
1
1
1
1
1
1
1
1
1
1
1
1
1
1
1
1
1
1
1
1
1
1
1
1
1
1
1
SCALARS extent double 1
LOOKUP_TABLE default
0.0125
0.0125
0.0125
0.0125
0.0125
0.0125
0.0125
0.0125
0.0125
0.0125
0.0125
0.0125
0.0125
0.0125
0.0125
0.0125
0.0125
0.0125
0.0125
0.0125
0.0125
0.0125
0.0125
0.0125
0.0125
0.0125
0.0125
0.0125
0.0125
0.0125
0.0125
0.0125
0.0125
0.0125
0.0125
0.0125
0.0125
0.0125
0.0125
0.0125
0.0125
0.0125
0.0125
0.0125
0.0125
0.0125
0.0125
0.0125
0.0125
0.0125
0.0125
0.0125
0.0125
0.0125
0.0125
0.0125
0.0125
0.0125
0.0125
0.0125
0.0125
0.0125
0.0125
0.0125
SCALARS pressure double 1
LOOKUP_TABLE default
1836.71
-4743.8
-1806.06
-2742.71
-9136.19
-9856.14
2725.12
-372.377
-1147.36
6423.89
-1791.69
510.336
-1103.48
-783.059
-1799.7
3447.79
8228.14
2683.31
1877.19
-3014.13
1197.8
-3162.06
-2469.89
1503.4
154.655
1281.13
-2091.73
-4586.37
2397.78
762.6
1251.57
2848.05
-3684.75
-1887.84
-802.327
-176.864
-2525.04
-2726.8
-3905.94
-5363.21
-3096.51
-1119.35
-4749.05
2445.97
-6142.25
3988.55
1239.36
259.222
-261.515
1409.64
-104.617
-1597.45
2523.06
-2432.87
-3127.25
-4361.31
-2683.03
-4061.36
-4516.83
-6839.35
954.492
-5317.77
905.586
-1324.02
SCALARS density double 1
LOOKUP_TABLE default
1019.29
951.862
981.392
971.879
909.358
902.575
1028.75
996.135
988.138
1069.09
981.539
1005.32
988.589
991.889
981.457
1036.51
1089.34
1028.3
1019.71
969.139
1012.54
967.649
974.64
1015.76
1001.61
1013.41
978.481
953.421
1025.25
1007.96
1013.1
1030.06
962.404
980.558
991.691
998.162
974.081
972.04
960.192
945.75
968.309
988.426
951.81
1025.76
938.118
1042.35
1012.97
1002.7
997.284
1014.77
998.913
983.524
1026.59
975.016
968
955.656
972.482
958.641
954.111
931.341
1009.98
946.197
1009.46
986.325
