# vtk DataFile Version 3.0
Frame: 11, Time: 0.2
ASCII
DATASET UNSTRUCTURED_GRID
POINTS 64 double
0.4125 0.213347 0 
0.4125 0.238347 0 
0.4375 0.213347 0 
0.4375 0.238347 0 
0.4125 0.263347 0 
0.4125 0.288347 0 
0.4375 0.263347 0 
0.4375 0.288347 0 
0.4125 0.313347 0 
0.4125 0.338347 0 
0.4375 0.313347 0 
0.4375 0.338347 0 
0.4125 0.363347 0 
0.4125 0.388347 0 
0.4375 0.363347 0 
0.4375 0.388347 0 
0.4625 0.213347 0 
0.4625 0.238347 0 
0.4875 0.213347 0 
0.4875 0.238347 0 
0.4625 0.263347 0 
0.4625 0.288347 0 
0.4875 0.263347 0 
0.4875 0.288347 0 
0.4625 0.313347 0 
0.4625 0.338347 0 
0.4875 0.313347 0 
0.4875 0.338347 0 
0.4625 0.363347 0 
0.4625 0.388347 0 
0.4875 0.363347 0 
0.4875 0.388347 0 
0.5125 0.213347 0 
0.5125 0.238347 0 
0.5375 0.213347 0 
0.5375 0.238347 0 
0.5125 0.263347 0 
0.5125 0.288347 0 
0.5375 0.263347 0 
0.5375 0.288347 0 
0.5125 0.313347 0 
0.5125 0.338347 0 
0.5375 0.313347 0 
0.5375 0.338347 0 
0.5125 0.363347 0 
0.5125 0.388347 0 
0.5375 0.363347 0 
0.5375 0.388347 0 
0.5625 0.213347 0 
0.5625 0.238347 0 
0.5875 0.213347 0 
0.5875 0.238347 0 
0.5625 0.263347 0 
0.5625 0.288347 0 
0.5875 0.263347 0 
0.5875 0.288347 0 
0.5625 0.313347 0 
0.5625 0.338347 0 
0.5875 0.313347 0 
0.5875 0.338347 0 
0.5625 0.363347 0 
0.5625 0.388347 0 
0.5875 0.363347 0 
0.5875 0.388347 0 
CELLS 64 128
1 0
1 1
1 2
1 3
1 4
1 5
1 6
1 7
1 8
1 9
1 10
1 11
1 12
1 13
1 14
1 15
1 16
1 17
1 18
1 19
1 20
1 21
1 22
1 23
1 24
1 25
1 26
1 27
1 28
1 29
1 30
1 31
1 32
1 33
1 34
1 35
1 36
1 37
1 38
1 39
1 40
1 41
1 42
1 43
1 44
1 45
1 46
1 47
1 48
1 49
1 50
1 51
1 52
1 53
1 54
1 55
1 56
1 57
1 58
1 59
1 60
1 61
1 62
1 63
CELL_TYPES 64
1
1
1
1
1
1
1
1
1
1
1
1
1
1
1
1
1
1
1
1
1
1
1
1
1
1
1
1
1
1
1
1
1
1
1
1
1
1
1
1
1
1
1
1
1
1
1
1
1
1
1
1
1
1
1
1
1
1
1
1
1
1
1
1
POINT_DATA 64
VECTORS displacement double
-6.0772e-17 -0.199153 0 
-7.08864e-17 -0.199153 0 
-6.73996e-17 -0.199153 0 
-7.39794e-17 -0.199153 0 
-7.82751e-17 -0.199153 0 
-7.61594e-17 -0.199153 0 
-7.83917e-17 -0.199153 0 
-7.73958e-17 -0.199153 0 
-6.92577e-17 -0.199153 0 
-7.11775e-17 -0.199153 0 
-7.20737e-17 -0.199153 0 
-7.0383e-17 -0.199153 0 
-6.17458e-17 -0.199153 0 
-5.14288e-17 -0.199153 0 
-6.01539e-17 -0.199153 0 
-4.86171e-17 -0.199153 0 
-7.05283e-17 -0.199153 0 
-7.40951e-17 -0.199153 0 
-7.01579e-17 -0.199153 0 
-7.12336e-17 -0.199153 0 
-7.63205e-17 -0.199153 0 
-7.63289e-17 -0.199153 0 
-7.20617e-17 -0.199153 0 
-7.29588e-17 -0.199153 0 
-7.27802e-17 -0.199153 0 
-6.87983e-17 -0.199153 0 
-7.13774e-17 -0.199153 0 
-6.64234e-17 -0.199153 0 
-5.82668e-17 -0.199153 0 
-4.61249e-17 -0.199153 0 
-5.60845e-17 -0.199153 0 
-4.3952e-17 -0.199153 0 
-6.98229e-17 -0.199153 0 
-6.75589e-17 -0.199153 0 
-6.95231e-17 -0.199153 0 
-6.3071e-17 -0.199153 0 
-6.66564e-17 -0.199153 0 
-6.75785e-17 -0.199153 0 
-6.01045e-17 -0.199153 0 
-6.0188e-17 -0.199153 0 
-6.76978e-17 -0.199153 0 
-6.30224e-17 -0.199153 0 
-6.17416e-17 -0.199153 0 
-5.85952e-17 -0.199153 0 
-5.51194e-17 -0.199153 0 
-4.49758e-17 -0.199153 0 
-5.53714e-17 -0.199153 0 
-4.91963e-17 -0.199153 0 
-7.29783e-17 -0.199153 0 
-6.23843e-17 -0.199153 0 
-8.01886e-17 -0.199153 0 
-6.54985e-17 -0.199153 0 
-5.52124e-17 -0.199153 0 
-5.45574e-17 -0.199153 0 
-5.19802e-17 -0.199153 0 
-5.06865e-17 -0.199153 0 
-5.81975e-17 -0.199153 0 
-5.50953e-17 -0.199153 0 
-5.70654e-17 -0.199153 0 
-5.25225e-17 -0.199153 0 
-5.5109e-17 -0.199153 0 
-5.31717e-17 -0.199153 0 
-5.43323e-17 -0.199153 0 
-5.69021e-17 -0.199153 0 
VECTORS velocity double
-2.93362e-15 -1.97181 0 
2.56255e-15 -1.97181 0 
-1.49072e-15 -1.97181 0 
8.24732e-16 -1.97181 0 
1.61678e-15 -1.97181 0 
-9.93968e-16 -1.97181 0 
-1.01324e-16 -1.97181 0 
-1.59282e-15 -1.97181 0 
-2.91901e-15 -1.97181 0 
-2.82198e-15 -1.97181 0 
-2.82762e-15 -1.97181 0 
-1.51355e-15 -1.97181 0 
-3.22749e-16 -1.97181 0 
-9.41067e-17 -1.97181 0 
2.92726e-17 -1.97181 0 
1.14024e-15 -1.97181 0 
-7.82967e-16 -1.97181 0 
-2.95117e-16 -1.97181 0 
-8.10347e-16 -1.97181 0 
-7.96998e-16 -1.97181 0 
-9.49618e-16 -1.97181 0 
-1.59701e-15 -1.97181 0 
-9.28097e-16 -1.97181 0 
-1.00655e-15 -1.97181 0 
-2.23001e-15 -1.97181 0 
-7.41778e-16 -1.97181 0 
-1.12616e-15 -1.97181 0 
-5.0667e-16 -1.97181 0 
4.75868e-16 -1.97181 0 
2.00787e-15 -1.97181 0 
1.01704e-15 -1.97181 0 
2.50876e-15 -1.97181 0 
-8.96245e-16 -1.97181 0 
-9.37946e-16 -1.97181 0 
-1.04066e-15 -1.97181 0 
-7.1796e-16 -1.97181 0 
-7.71058e-16 -1.97181 0 
-4.87124e-16 -1.97181 0 
-4.78499e-16 -1.97181 0 
-3.87331e-17 -1.97181 0 
-1.44211e-16 -1.97181 0 
-1.99756e-16 -1.97181 0 
7.15841e-16 -1.97181 0 
1.78964e-16 -1.97181 0 
1.18197e-15 -1.97181 0 
2.19243e-15 -1.97181 0 
9.70654e-16 -1.97181 0 
1.05887e-15 -1.97181 0 
-7.61525e-16 -1.97181 0 
-1.73681e-15 -1.97181 0 
-5.88433e-17 -1.97181 0 
-3.99451e-15 -1.97181 0 
-1.07509e-15 -1.97181 0 
-5.62913e-17 -1.97181 0 
-2.56084e-15 -1.97181 0 
-5.39799e-16 -1.97181 0 
9.40399e-16 -1.97181 0 
6.82085e-16 -1.97181 0 
5.29463e-16 -1.97181 0 
1.30961e-15 -1.97181 0 
2.23107e-16 -1.97181 0 
-3.46532e-16 -1.97181 0 
-1.06068e-15 -1.97181 0 
-2.02377e-15 -1.97181 0 
SCALARS mass double 1
LOOKUP_TABLE default
0.625
0.625
0.625
0.625
0.625
0.625
0.625
0.625
0.625
0.625
0.625
0.625
0.625
0.625
0.625
0.625
0.625
0.625
0.625
0.625
0.625
0.625
0.625
0.625
0.625
0.625
0.625
0.625
0.625
0.625
0.625
0.625
0.625
0.625
0.625
0.625
0.625
0.625
0.625
0.625
0.625
0.625
0.625
0.625
0.625
0.625
0.625
0.625
0.625
0.625
0.625
0.625
0.625
0.625
0.625
0.625
0.625
0.625
0.625
0.625
0.625
0.625
0.625
0.625
SCALARS volume double 1
LOOKUP_TABLE default
0.000625
0.000625
0.000625
0.000625
0.000625
0.000625
0.000625
0.000625
0.000625
0.000625
0.000625
0.000625
0.000625
0.000625
0.000625
0.000625
0.000625
0.000625
0.000625
0.000625
0.000625
0.000625
0.000625
0.000625
0.000625
0.000625
0.000625
0.000625
0.000625
0.000625
0.000625
0.000625
0.000625
0.000625
0.000625
0.000625
0.000625
0.000625
0.000625
0.000625
0.000625
0.000625
0.000625
0.000625
0.000625
0.000625
0.000625
0.000625
0.000625
0.000625
0.000625
0.000625
0.000625
0.000625
0.000625
0.000625
0.000625
0.000625
0.000625
0.000625
0.000625
0.000625
0.000625
0.000625
VECTORS momentum double
-1.83351e-15 -1.23238 0 
1.60159e-15 -1.23238 0 
-9.31702e-16 -1.23238 0 
5.15458e-16 -1.23238 0 
1.01049e-15 -1.23238 0 
-6.2123e-16 -1.23238 0 
-6.33274e-17 -1.23238 0 
-9.95513e-16 -1.23238 0 
-1.82438e-15 -1.23238 0 
-1.76374e-15 -1.23238 0 
-1.76726e-15 -1.23238 0 
-9.45968e-16 -1.23238 0 
-2.01718e-16 -1.23238 0 
-5.88167e-17 -1.23238 0 
1.82954e-17 -1.23238 0 
7.12653e-16 -1.23238 0 
-4.89354e-16 -1.23238 0 
-1.84448e-16 -1.23238 0 
-5.06467e-16 -1.23238 0 
-4.98124e-16 -1.23238 0 
-5.93511e-16 -1.23238 0 
-9.98134e-16 -1.23238 0 
-5.80061e-16 -1.23238 0 
-6.29095e-16 -1.23238 0 
-1.39375e-15 -1.23238 0 
-4.63611e-16 -1.23238 0 
-7.0385e-16 -1.23238 0 
-3.16669e-16 -1.23238 0 
2.97417e-16 -1.23238 0 
1.25492e-15 -1.23238 0 
6.35648e-16 -1.23238 0 
1.56797e-15 -1.23238 0 
-5.60153e-16 -1.23238 0 
-5.86216e-16 -1.23238 0 
-6.50412e-16 -1.23238 0 
-4.48725e-16 -1.23238 0 
-4.81911e-16 -1.23238 0 
-3.04453e-16 -1.23238 0 
-2.99062e-16 -1.23238 0 
-2.42082e-17 -1.23238 0 
-9.0132e-17 -1.23238 0 
-1.24848e-16 -1.23238 0 
4.47401e-16 -1.23238 0 
1.11852e-16 -1.23238 0 
7.38729e-16 -1.23238 0 
1.37027e-15 -1.23238 0 
6.06659e-16 -1.23238 0 
6.61792e-16 -1.23238 0 
-4.75953e-16 -1.23238 0 
-1.08551e-15 -1.23238 0 
-3.6777e-17 -1.23238 0 
-2.49657e-15 -1.23238 0 
-6.71934e-16 -1.23238 0 
-3.51821e-17 -1.23238 0 
-1.60053e-15 -1.23238 0 
-3.37374e-16 -1.23238 0 
5.87749e-16 -1.23238 0 
4.26303e-16 -1.23238 0 
3.30914e-16 -1.23238 0 
8.18505e-16 -1.23238 0 
1.39442e-16 -1.23238 0 
-2.16582e-16 -1.23238 0 
-6.62922e-16 -1.23238 0 
-1.26486e-15 -1.23238 0 
VECTORS body_force double
0 -9.81 0 
0 -9.81 0 
0 -9.81 0 
0 -9.81 0 
0 -9.81 0 
0 -9.81 0 
0 -9.81 0 
0 -9.81 0 
0 -9.81 0 
0 -9.81 0 
0 -9.81 0 
0 -9.81 0 
0 -9.81 0 
0 -9.81 0 
0 -9.81 0 
0 -9.81 0 
0 -9.81 0 
0 -9.81 0 
0 -9.81 0 
0 -9.81 0 
0 -9.81 0 
0 -9.81 0 
0 -9.81 0 
0 -9.81 0 
0 -9.81 0 
0 -9.81 0 
0 -9.81 0 
0 -9.81 0 
0 -9.81 0 
0 -9.81 0 
0 -9.81 0 
0 -9.81 0 
0 -9.81 0 
0 -9.81 0 
0 -9.81 0 
0 -9.81 0 
0 -9.81 0 
0 -9.81 0 
0 -9.81 0 
0 -9.81 0 
0 -9.81 0 
0 -9.81 0 
0 -9.81 0 
0 -9.81 0 
0 -9.81 0 
0 -9.81 0 
0 -9.81 0 
0 -9.81 0 
0 -9.81 0 
0 -9.81 0 
0 -9.81 0 
0 -9.81 0 
0 -9.81 0 
0 -9.81 0 
0 -9.81 0 
0 -9.81 0 
0 -9.81 0 
0 -9.81 0 
0 -9.81 0 
0 -9.81 0 
0 -9.81 0 
0 -9.81 0 
0 -9.81 0 
0 -9.81 0 
TENSORS cauchy_stress double
-6.76923e-11 -1.18212e-11 0
-1.18212e-11 -8.99726e-11 0
0 0 0

4.61493e-11 4.18397e-13 0
4.18397e-13 1.39405e-10 0
0 0 0

-7.99125e-11 3.41598e-12 0
3.41598e-12 -1.18486e-10 0
0 0 0

3.76801e-11 -7.3415e-12 0
-7.3415e-12 1.19643e-10 0
0 0 0

5.74626e-11 -8.87659e-12 0
-8.87659e-12 1.35275e-10 0
0 0 0

-3.95077e-11 1.73061e-12 0
1.73061e-12 -7.95039e-11 0
0 0 0

2.89065e-11 -1.58903e-11 0
-1.58903e-11 6.86439e-11 0
0 0 0

-5.31651e-11 -8.04827e-13 0
-8.04827e-13 -1.11371e-10 0
0 0 0

1.03541e-11 -1.40697e-12 0
-1.40697e-12 5.3041e-11 0
0 0 0

9.18116e-12 -9.48716e-12 0
-9.48716e-12 1.32741e-11 0
0 0 0

-2.30687e-12 -5.76003e-12 0
-5.76003e-12 2.34988e-11 0
0 0 0

7.1187e-12 7.04114e-12 0
7.04114e-12 8.46168e-12 0
0 0 0

6.75797e-12 4.72835e-12 0
4.72835e-12 -5.58687e-13 0
0 0 0

1.9532e-11 -3.52703e-12 0
-3.52703e-12 1.67372e-11 0
0 0 0

-3.53388e-12 4.70385e-12 0
4.70385e-12 -2.4573e-11 0
0 0 0

9.38792e-12 7.63684e-12 0
7.63684e-12 -6.93243e-12 0
0 0 0

-5.02873e-11 -2.07897e-11 0
-2.07897e-11 -1.21136e-10 0
0 0 0

6.89391e-11 -6.33775e-12 0
-6.33775e-12 1.31509e-10 0
0 0 0

-4.07145e-11 -3.54452e-12 0
-3.54452e-12 -9.87988e-11 0
0 0 0

7.07101e-11 -1.21039e-11 0
-1.21039e-11 1.35641e-10 0
0 0 0

6.16275e-11 -1.6385e-11 0
-1.6385e-11 1.00117e-10 0
0 0 0

-2.48283e-11 1.82861e-12 0
1.82861e-12 -9.24983e-11 0
0 0 0

3.51362e-11 -1.15153e-11 0
-1.15153e-11 3.83044e-11 0
0 0 0

-2.64584e-11 -7.67826e-13 0
-7.67826e-13 -9.63019e-11 0
0 0 0

2.44081e-11 -1.47927e-11 0
-1.47927e-11 4.25641e-11 0
0 0 0

1.30872e-11 -6.7938e-12 0
-6.7938e-12 6.17914e-12 0
0 0 0

2.76766e-13 -5.37473e-12 0
-5.37473e-12 -1.37424e-11 0
0 0 0

2.0381e-11 -4.25907e-12 0
-4.25907e-12 2.31981e-11 0
0 0 0

1.04692e-11 -1.28766e-12 0
-1.28766e-12 2.046e-12 0
0 0 0

-9.3254e-14 -2.99866e-12 0
-2.99866e-12 -2.25037e-11 0
0 0 0

-1.03951e-11 6.25479e-12 0
6.25479e-12 -4.66374e-11 0
0 0 0

1.96105e-11 4.44483e-12 0
4.44483e-12 2.34718e-11 0
0 0 0

-3.49982e-11 -3.19411e-13 0
-3.19411e-13 -8.47374e-11 0
0 0 0

6.53712e-11 5.43684e-12 0
5.43684e-12 1.06504e-10 0
0 0 0

-5.99998e-11 8.11459e-12 0
8.11459e-12 -1.43075e-10 0
0 0 0

6.87515e-11 6.21281e-12 0
6.21281e-12 1.14391e-10 0
0 0 0

6.90074e-11 -5.19429e-12 0
-5.19429e-12 9.38181e-11 0
0 0 0

-1.53695e-11 -1.33779e-11 0
-1.33779e-11 -1.11662e-10 0
0 0 0

6.48937e-11 1.93994e-12 0
1.93994e-12 8.42195e-11 0
0 0 0

-3.37906e-11 -1.60453e-11 0
-1.60453e-11 -1.54644e-10 0
0 0 0

4.47113e-11 -8.64694e-12 0
-8.64694e-12 4.32369e-11 0
0 0 0

8.06923e-12 4.2882e-12 0
4.2882e-12 -2.65788e-11 0
0 0 0

3.50904e-11 -5.47482e-12 0
-5.47482e-12 2.07881e-11 0
0 0 0

2.10909e-11 -1.64521e-12 0
-1.64521e-12 3.80503e-12 0
0 0 0

1.08903e-12 -5.48859e-13 0
-5.48859e-13 5.1257e-12 0
0 0 0

-2.73871e-11 7.5642e-12 0
7.5642e-12 -2.06161e-11 0
0 0 0

1.3044e-12 -3.79012e-12 0
-3.79012e-12 5.62823e-12 0
0 0 0

-5.46073e-12 8.52653e-12 0
8.52653e-12 3.05455e-11 0
0 0 0

-6.61739e-11 -1.2562e-11 0
-1.2562e-11 -8.04538e-11 0
0 0 0

2.89699e-11 -1.70229e-11 0
-1.70229e-11 9.95377e-11 0
0 0 0

-7.46014e-11 5.04974e-13 0
5.04974e-13 -1.00118e-10 0
0 0 0

5.22013e-11 1.4261e-12 0
1.4261e-12 1.53744e-10 0
0 0 0

4.82008e-11 4.75351e-13 0
4.75351e-13 7.93178e-11 0
0 0 0

-2.71505e-11 1.77578e-12 0
1.77578e-12 -1.03052e-10 0
0 0 0

6.02656e-11 5.26384e-12 0
5.26384e-12 1.07469e-10 0
0 0 0

-2.65805e-11 -2.4319e-12 0
-2.4319e-12 -1.01722e-10 0
0 0 0

1.3041e-11 1.15225e-12 0
1.15225e-12 1.88179e-11 0
0 0 0

-3.00992e-12 3.94103e-12 0
3.94103e-12 -3.34102e-11 0
0 0 0

1.98188e-11 2.58732e-12 0
2.58732e-12 3.46328e-11 0
0 0 0

1.78788e-11 3.89933e-12 0
3.89933e-12 1.53302e-11 0
0 0 0

-1.37243e-13 3.88339e-12 0
3.88339e-12 -8.28713e-12 0
0 0 0

-1.4631e-11 4.50317e-12 0
4.50317e-12 4.12115e-12 0
0 0 0

8.95685e-12 -2.61804e-12 0
-2.61804e-12 1.29324e-11 0
0 0 0

-5.91519e-12 6.28462e-12 0
6.28462e-12 2.4458e-11 0
0 0 0

TENSORS velocity_gradient double
2.19039e-14 7.10971e-14 0
-3.55271e-15 -2.02505e-13 0
0 0 0

-1.69943e-14 7.10971e-14 0
-3.55271e-14 -2.06057e-13 0
0 0 0

2.19039e-14 3.21989e-14 0
-7.10543e-15 -2.34479e-13 0
0 0 0

-1.69943e-14 3.21989e-14 0
-4.26326e-14 -2.13163e-13 0
0 0 0

-1.84897e-14 -6.13519e-14 0
-2.4869e-14 8.88178e-14 0
0 0 0

3.65203e-15 -6.13519e-14 0
2.13163e-14 1.06581e-13 0
0 0 0

-1.84897e-14 -3.92102e-14 0
-1.42109e-14 9.9476e-14 0
0 0 0

3.65203e-15 -3.92102e-14 0
1.42109e-14 1.56319e-13 0
0 0 0

1.307e-14 1.66088e-14 0
2.4869e-14 -3.55271e-15 0
0 0 0

1.44471e-14 1.66088e-14 0
-7.10543e-15 -7.10543e-15 0
0 0 0

1.307e-14 1.79858e-14 0
2.4869e-14 -1.77636e-14 0
0 0 0

1.44471e-14 1.79858e-14 0
1.42109e-14 -2.84217e-14 0
0 0 0

1.52753e-14 3.07154e-14 0
7.10543e-15 7.10543e-15 0
0 0 0

1.57567e-14 3.07154e-14 0
-5.32907e-14 3.19744e-14 0
0 0 0

1.52753e-14 3.11968e-14 0
-1.42109e-14 -1.42109e-14 0
0 0 0

1.57567e-14 3.11968e-14 0
-2.84217e-14 0 0
0 0 0

-6.8332e-15 1.01254e-14 0
3.55271e-15 -1.81188e-13 0
0 0 0

-1.2082e-14 1.01254e-14 0
1.42109e-14 -1.98952e-13 0
0 0 0

-6.8332e-15 4.87661e-15 0
-1.42109e-14 -1.84741e-13 0
0 0 0

-1.2082e-14 4.87661e-15 0
1.42109e-14 -1.98952e-13 0
0 0 0

-3.82523e-15 -1.97434e-14 0
1.95399e-14 1.61648e-13 0
0 0 0

1.29665e-14 -1.97434e-14 0
3.55271e-15 1.03029e-13 0
0 0 0

-3.82523e-15 -2.9517e-15 0
1.06581e-14 9.59233e-14 0
0 0 0

1.29665e-14 -2.9517e-15 0
0 8.52651e-14 0
0 0 0

1.95014e-14 1.87009e-14 0
-1.95399e-14 -5.32907e-15 0
0 0 0

1.95545e-14 1.87009e-14 0
2.13163e-14 -3.55271e-14 0
0 0 0

1.95014e-14 1.87539e-14 0
1.06581e-14 1.06581e-14 0
0 0 0

1.95545e-14 1.87539e-14 0
1.42109e-14 4.26326e-14 0
0 0 0

1.86131e-14 3.06526e-14 0
4.08562e-14 1.24345e-14 0
0 0 0

1.70433e-14 3.06526e-14 0
-1.06581e-14 -2.4869e-14 0
0 0 0

1.86131e-14 2.90828e-14 0
2.13163e-14 -2.13163e-14 0
0 0 0

1.70433e-14 2.90828e-14 0
0 0 0
0 0 0

-6.75456e-15 1.97245e-15 0
-5.32907e-15 -1.33227e-13 0
0 0 0

-7.31409e-15 1.97245e-15 0
-6.39488e-14 -1.49214e-13 0
0 0 0

-6.75456e-15 1.41292e-15 0
-3.90799e-14 -1.38556e-13 0
0 0 0

-7.31409e-15 1.41292e-15 0
-1.42109e-14 -1.27898e-13 0
0 0 0

-1.78375e-15 1.01336e-14 0
-2.66454e-14 8.70415e-14 0
0 0 0

7.59516e-15 1.01336e-14 0
7.10543e-15 9.23706e-14 0
0 0 0

-1.78375e-15 1.95125e-14 0
-2.13163e-14 7.81597e-14 0
0 0 0

7.59516e-15 1.95125e-14 0
2.84217e-14 1.42109e-13 0
0 0 0

8.4768e-15 1.65362e-14 0
1.95399e-14 3.37508e-14 0
0 0 0

3.98852e-15 1.65362e-14 0
-1.77636e-14 2.4869e-14 0
0 0 0

8.4768e-15 1.2048e-14 0
1.06581e-14 2.4869e-14 0
0 0 0

3.98852e-15 1.2048e-14 0
2.84217e-14 0 0
0 0 0

-7.49e-15 2.03499e-14 0
1.42109e-14 -1.42109e-14 0
0 0 0

-2.33861e-14 2.03499e-14 0
4.26326e-14 -1.42109e-14 0
0 0 0

-7.49e-15 4.45381e-15 0
1.42109e-14 0 0
0 0 0

-2.33861e-14 4.45381e-15 0
4.26326e-14 -1.42109e-14 0
0 0 0

1.32658e-14 -1.56141e-14 0
2.84217e-14 -1.56319e-13 0
0 0 0

-2.02286e-14 -1.56141e-14 0
-2.84217e-14 -1.7053e-13 0
0 0 0

1.32658e-14 -4.91085e-14 0
7.10543e-15 -1.49214e-13 0
0 0 0

-2.02286e-14 -4.91085e-14 0
0 -1.7053e-13 0
0 0 0

-2.25452e-14 3.28953e-14 0
-3.01981e-14 1.26121e-13 0
0 0 0

-5.15853e-15 3.28953e-14 0
3.55271e-15 1.45661e-13 0
0 0 0

-2.25452e-14 5.0282e-14 0
-1.77636e-14 1.10134e-13 0
0 0 0

-5.15853e-15 5.0282e-14 0
1.42109e-14 1.84741e-13 0
0 0 0

-2.23849e-15 6.69268e-15 0
-7.10543e-15 -7.10543e-15 0
0 0 0

-8.46076e-15 6.69268e-15 0
-2.4869e-14 3.19744e-14 0
0 0 0

-2.23849e-15 4.70406e-16 0
0 0 0
0 0 0

-8.46076e-15 4.70406e-16 0
-4.26326e-14 -1.42109e-14 0
0 0 0

-1.74155e-14 -8.83497e-15 0
-2.66454e-14 -1.24345e-14 0
0 0 0

-2.8097e-14 -8.83497e-15 0
-7.10543e-15 3.55271e-14 0
0 0 0

-1.74155e-14 -1.95165e-14 0
-3.19744e-14 -3.19744e-14 0
0 0 0

-2.8097e-14 -1.95165e-14 0
0 2.84217e-14 0
0 0 0

SCALARS active double 1
LOOKUP_TABLE default
1
1
1
1
1
1
1
1
1
1
1
1
1
1
1
1
1
1
1
1
1
1
1
1
1
1
1
1
1
1
1
1
1
1
1
1
1
1
1
1
1
1
1
1
1
1
1
1
1
1
1
1
1
1
1
1
1
1
1
1
1
1
1
1
SCALARS extent double 1
LOOKUP_TABLE default
0.0125
0.0125
0.0125
0.0125
0.0125
0.0125
0.0125
0.0125
0.0125
0.0125
0.0125
0.0125
0.0125
0.0125
0.0125
0.0125
0.0125
0.0125
0.0125
0.0125
0.0125
0.0125
0.0125
0.0125
0.0125
0.0125
0.0125
0.0125
0.0125
0.0125
0.0125
0.0125
0.0125
0.0125
0.0125
0.0125
0.0125
0.0125
0.0125
0.0125
0.0125
0.0125
0.0125
0.0125
0.0125
0.0125
0.0125
0.0125
0.0125
0.0125
0.0125
0.0125
0.0125
0.0125
0.0125
0.0125
0.0125
0.0125
0.0125
0.0125
0.0125
0.0125
0.0125
0.0125
SCALARS pressure double 1
LOOKUP_TABLE default
7.88324e-11
-9.27771e-11
9.91994e-11
-7.86617e-11
-9.63687e-11
5.95058e-11
-4.87752e-11
8.22681e-11
-3.16975e-11
-1.12276e-11
-1.0596e-11
-7.79019e-12
-3.09964e-12
-1.81346e-11
1.40534e-11
-1.22774e-12
8.57114e-11
-1.00224e-10
6.97566e-11
-1.03176e-10
-8.08724e-11
5.86633e-11
-3.67203e-11
6.13802e-11
-3.34861e-11
-9.63315e-12
6.73282e-12
-2.17896e-11
-6.25762e-12
1.12985e-11
2.85163e-11
-2.15412e-11
5.98678e-11
-8.59374e-11
1.01537e-10
-9.15712e-11
-8.14127e-11
6.35155e-11
-7.45566e-11
9.42175e-11
-4.39741e-11
9.25477e-12
-2.79392e-11
-1.2448e-11
-3.10736e-12
2.40016e-11
-3.46632e-12
-1.25424e-11
7.33138e-11
-6.42538e-11
8.73598e-11
-1.02973e-10
-6.37593e-11
6.51015e-11
-8.38674e-11
6.41514e-11
-1.59295e-11
1.821e-11
-2.72258e-11
-1.66045e-11
4.21218e-12
5.25491e-12
-1.09446e-11
-9.2714e-12
SCALARS density double 1
LOOKUP_TABLE default
1000
1000
1000
1000
1000
1000
1000
1000
1000
1000
1000
1000
1000
1000
1000
1000
1000
1000
1000
1000
1000
1000
1000
1000
1000
1000
1000
1000
1000
1000
1000
1000
1000
1000
1000
1000
1000
1000
1000
1000
1000
1000
1000
1000
1000
1000
1000
1000
1000
1000
1000
1000
1000
1000
1000
1000
1000
1000
1000
1000
1000
1000
1000
1000
