# vtk DataFile Version 3.0
Frame: 2, Time: 0.05
ASCII
DATASET UNSTRUCTURED_GRID
POINTS 64 double
0.4125 0.399492 0 
0.4125 0.424492 0 
0.4375 0.399492 0 
0.4375 0.424492 0 
0.4125 0.449492 0 
0.4125 0.474492 0 
0.4375 0.449492 0 
0.4375 0.474492 0 
0.4125 0.499492 0 
0.4125 0.524492 0 
0.4375 0.499492 0 
0.4375 0.524492 0 
0.4125 0.549492 0 
0.4125 0.574492 0 
0.4375 0.549492 0 
0.4375 0.574492 0 
0.4625 0.399492 0 
0.4625 0.424492 0 
0.4875 0.399492 0 
0.4875 0.424492 0 
0.4625 0.449492 0 
0.4625 0.474492 0 
0.4875 0.449492 0 
0.4875 0.474492 0 
0.4625 0.499492 0 
0.4625 0.524492 0 
0.4875 0.499492 0 
0.4875 0.524492 0 
0.4625 0.549492 0 
0.4625 0.574492 0 
0.4875 0.549492 0 
0.4875 0.574492 0 
0.5125 0.399492 0 
0.5125 0.424492 0 
0.5375 0.399492 0 
0.5375 0.424492 0 
0.5125 0.449492 0 
0.5125 0.474492 0 
0.5375 0.449492 0 
0.5375 0.474492 0 
0.5125 0.499492 0 
0.5125 0.524492 0 
0.5375 0.499492 0 
0.5375 0.524492 0 
0.5125 0.549492 0 
0.5125 0.574492 0 
0.5375 0.549492 0 
0.5375 0.574492 0 
0.5625 0.399492 0 
0.5625 0.424492 0 
0.5875 0.399492 0 
0.5875 0.424492 0 
0.5625 0.449492 0 
0.5625 0.474492 0 
0.5875 0.449492 0 
0.5875 0.474492 0 
0.5625 0.499492 0 
0.5625 0.524492 0 
0.5875 0.499492 0 
0.5875 0.524492 0 
0.5625 0.549492 0 
0.5625 0.574492 0 
0.5875 0.549492 0 
0.5875 0.574492 0 
CELLS 64 128
1 0
1 1
1 2
1 3
1 4
1 5
1 6
1 7
1 8
1 9
1 10
1 11
1 12
1 13
1 14
1 15
1 16
1 17
1 18
1 19
1 20
1 21
1 22
1 23
1 24
1 25
1 26
1 27
1 28
1 29
1 30
1 31
1 32
1 33
1 34
1 35
1 36
1 37
1 38
1 39
1 40
1 41
1 42
1 43
1 44
1 45
1 46
1 47
1 48
1 49
1 50
1 51
1 52
1 53
1 54
1 55
1 56
1 57
1 58
1 59
1 60
1 61
1 62
1 63
CELL_TYPES 64
1
1
1
1
1
1
1
1
1
1
1
1
1
1
1
1
1
1
1
1
1
1
1
1
1
1
1
1
1
1
1
1
1
1
1
1
1
1
1
1
1
1
1
1
1
1
1
1
1
1
1
1
1
1
1
1
1
1
1
1
1
1
1
1
POINT_DATA 64
VECTORS displacement double
2.94388e-18 -0.0130081 0 
2.56188e-18 -0.0130081 0 
2.92331e-18 -0.0130081 0 
2.46259e-18 -0.0130081 0 
2.39251e-18 -0.0130081 0 
3.04314e-18 -0.0130081 0 
2.09184e-18 -0.0130081 0 
1.95502e-18 -0.0130081 0 
3.15151e-18 -0.0130081 0 
6.1451e-19 -0.0130081 0 
1.51427e-18 -0.0130081 0 
-2.42214e-19 -0.0130081 0 
-1.97035e-18 -0.0130081 0 
-3.2266e-18 -0.0130081 0 
-2.05386e-18 -0.0130081 0 
-3.23328e-18 -0.0130081 0 
2.82622e-18 -0.0130081 0 
2.22234e-18 -0.0130081 0 
2.6526e-18 -0.0130081 0 
1.8411e-18 -0.0130081 0 
1.65203e-18 -0.0130081 0 
1.00589e-18 -0.0130081 0 
1.0731e-18 -0.0130081 0 
1.95746e-19 -0.0130081 0 
2.04183e-19 -0.0130081 0 
-1.06999e-18 -0.0130081 0 
-7.78756e-19 -0.0130081 0 
-1.86883e-18 -0.0130081 0 
-2.35169e-18 -0.0130081 0 
-3.32479e-18 -0.0130081 0 
-2.86382e-18 -0.0130081 0 
-3.50114e-18 -0.0130081 0 
2.41097e-18 -0.0130081 0 
1.45061e-18 -0.0130081 0 
2.10134e-18 -0.0130081 0 
1.05088e-18 -0.0130081 0 
5.08498e-19 -0.0130081 0 
-5.19101e-19 -0.0130081 0 
-4.17585e-20 -0.0130081 0 
-1.13865e-18 -0.0130081 0 
-1.57951e-18 -0.0130081 0 
-2.49585e-18 -0.0130081 0 
-2.19807e-18 -0.0130081 0 
-2.95106e-18 -0.0130081 0 
-3.23575e-18 -0.0130081 0 
-3.60495e-18 -0.0130081 0 
-3.46745e-18 -0.0130081 0 
-3.63623e-18 -0.0130081 0 
1.86827e-18 -0.0130081 0 
7.65806e-19 -0.0130081 0 
1.71175e-18 -0.0130081 0 
5.9539e-19 -0.0130081 0 
-4.54337e-19 -0.0130081 0 
-1.88475e-18 -0.0130081 0 
-7.29237e-19 -0.0130081 0 
-2.75741e-18 -0.0130081 0 
-3.11021e-18 -0.0130081 0 
-3.35284e-18 -0.0130081 0 
-4.31594e-18 -0.0130081 0 
-3.70118e-18 -0.0130081 0 
-3.43439e-18 -0.0130081 0 
-3.66912e-18 -0.0130081 0 
-3.13656e-18 -0.0130081 0 
-3.70363e-18 -0.0130081 0 
VECTORS velocity double
1.77817e-16 -0.50031 0 
4.33094e-17 -0.50031 0 
1.41755e-16 -0.50031 0 
1.30702e-16 -0.50031 0 
2.78479e-17 -0.50031 0 
5.26847e-16 -0.50031 0 
1.45565e-16 -0.50031 0 
2.74947e-16 -0.50031 0 
8.6646e-16 -0.50031 0 
2.93185e-16 -0.50031 0 
3.50704e-16 -0.50031 0 
1.22651e-16 -0.50031 0 
-2.33526e-16 -0.50031 0 
-5.44492e-17 -0.50031 0 
-1.0007e-16 -0.50031 0 
-5.4608e-17 -0.50031 0 
1.02873e-16 -0.50031 0 
1.36542e-16 -0.50031 0 
6.11709e-17 -0.50031 0 
6.08314e-17 -0.50031 0 
1.53742e-16 -0.50031 0 
7.82821e-17 -0.50031 0 
5.23794e-17 -0.50031 0 
-6.31482e-17 -0.50031 0 
4.66666e-18 -0.50031 0 
-2.94833e-17 -0.50031 0 
-1.71653e-16 -0.50031 0 
-1.63218e-16 -0.50031 0 
-6.81629e-17 -0.50031 0 
-4.72042e-17 -0.50031 0 
-1.37804e-16 -0.50031 0 
-3.22378e-17 -0.50031 0 
6.9023e-17 -0.50031 0 
2.98996e-18 -0.50031 0 
1.2643e-16 -0.50031 0 
-3.69822e-17 -0.50031 0 
-5.81696e-17 -0.50031 0 
-1.62865e-16 -0.50031 0 
-1.77905e-16 -0.50031 0 
-2.20868e-16 -0.50031 0 
-2.62431e-16 -0.50031 0 
-2.47454e-16 -0.50031 0 
-2.67669e-16 -0.50031 0 
-2.82191e-16 -0.50031 0 
-1.99609e-16 -0.50031 0 
-7.90251e-17 -0.50031 0 
-2.53577e-16 -0.50031 0 
-1.87566e-16 -0.50031 0 
1.75256e-16 -0.50031 0 
2.93197e-17 -0.50031 0 
2.15501e-16 -0.50031 0 
2.01896e-16 -0.50031 0 
-1.18481e-16 -0.50031 0 
-2.96237e-16 -0.50031 0 
1.20103e-16 -0.50031 0 
-3.88973e-16 -0.50031 0 
-4.31007e-16 -0.50031 0 
-3.18474e-16 -0.50031 0 
-7.52447e-16 -0.50031 0 
-3.56303e-16 -0.50031 0 
-2.05266e-16 -0.50031 0 
-2.98323e-16 -0.50031 0 
-5.46755e-17 -0.50031 0 
-4.11297e-16 -0.50031 0 
SCALARS mass double 1
LOOKUP_TABLE default
0.625
0.625
0.625
0.625
0.625
0.625
0.625
0.625
0.625
0.625
0.625
0.625
0.625
0.625
0.625
0.625
0.625
0.625
0.625
0.625
0.625
0.625
0.625
0.625
0.625
0.625
0.625
0.625
0.625
0.625
0.625
0.625
0.625
0.625
0.625
0.625
0.625
0.625
0.625
0.625
0.625
0.625
0.625
0.625
0.625
0.625
0.625
0.625
0.625
0.625
0.625
0.625
0.625
0.625
0.625
0.625
0.625
0.625
0.625
0.625
0.625
0.625
0.625
0.625
SCALARS volume double 1
LOOKUP_TABLE default
0.000625
0.000625
0.000625
0.000625
0.000625
0.000625
0.000625
0.000625
0.000625
0.000625
0.000625
0.000625
0.000625
0.000625
0.000625
0.000625
0.000625
0.000625
0.000625
0.000625
0.000625
0.000625
0.000625
0.000625
0.000625
0.000625
0.000625
0.000625
0.000625
0.000625
0.000625
0.000625
0.000625
0.000625
0.000625
0.000625
0.000625
0.000625
0.000625
0.000625
0.000625
0.000625
0.000625
0.000625
0.000625
0.000625
0.000625
0.000625
0.000625
0.000625
0.000625
0.000625
0.000625
0.000625
0.000625
0.000625
0.000625
0.000625
0.000625
0.000625
0.000625
0.000625
0.000625
0.000625
VECTORS momentum double
1.11135e-16 -0.312694 0 
2.70683e-17 -0.312694 0 
8.85971e-17 -0.312694 0 
8.16885e-17 -0.312694 0 
1.7405e-17 -0.312694 0 
3.29279e-16 -0.312694 0 
9.09782e-17 -0.312694 0 
1.71842e-16 -0.312694 0 
5.41537e-16 -0.312694 0 
1.83241e-16 -0.312694 0 
2.1919e-16 -0.312694 0 
7.6657e-17 -0.312694 0 
-1.45954e-16 -0.312694 0 
-3.40308e-17 -0.312694 0 
-6.25439e-17 -0.312694 0 
-3.413e-17 -0.312694 0 
6.42959e-17 -0.312694 0 
8.53389e-17 -0.312694 0 
3.82318e-17 -0.312694 0 
3.80197e-17 -0.312694 0 
9.60889e-17 -0.312694 0 
4.89263e-17 -0.312694 0 
3.27371e-17 -0.312694 0 
-3.94676e-17 -0.312694 0 
2.91667e-18 -0.312694 0 
-1.84271e-17 -0.312694 0 
-1.07283e-16 -0.312694 0 
-1.02011e-16 -0.312694 0 
-4.26018e-17 -0.312694 0 
-2.95026e-17 -0.312694 0 
-8.61277e-17 -0.312694 0 
-2.01486e-17 -0.312694 0 
4.31394e-17 -0.312694 0 
1.86872e-18 -0.312694 0 
7.90186e-17 -0.312694 0 
-2.31139e-17 -0.312694 0 
-3.6356e-17 -0.312694 0 
-1.01791e-16 -0.312694 0 
-1.1119e-16 -0.312694 0 
-1.38043e-16 -0.312694 0 
-1.6402e-16 -0.312694 0 
-1.54659e-16 -0.312694 0 
-1.67293e-16 -0.312694 0 
-1.76369e-16 -0.312694 0 
-1.24756e-16 -0.312694 0 
-4.93907e-17 -0.312694 0 
-1.58485e-16 -0.312694 0 
-1.17229e-16 -0.312694 0 
1.09535e-16 -0.312694 0 
1.83248e-17 -0.312694 0 
1.34688e-16 -0.312694 0 
1.26185e-16 -0.312694 0 
-7.40504e-17 -0.312694 0 
-1.85148e-16 -0.312694 0 
7.50641e-17 -0.312694 0 
-2.43108e-16 -0.312694 0 
-2.6938e-16 -0.312694 0 
-1.99046e-16 -0.312694 0 
-4.7028e-16 -0.312694 0 
-2.22689e-16 -0.312694 0 
-1.28291e-16 -0.312694 0 
-1.86452e-16 -0.312694 0 
-3.41722e-17 -0.312694 0 
-2.57061e-16 -0.312694 0 
VECTORS body_force double
0 -9.81 0 
0 -9.81 0 
0 -9.81 0 
0 -9.81 0 
0 -9.81 0 
0 -9.81 0 
0 -9.81 0 
0 -9.81 0 
0 -9.81 0 
0 -9.81 0 
0 -9.81 0 
0 -9.81 0 
0 -9.81 0 
0 -9.81 0 
0 -9.81 0 
0 -9.81 0 
0 -9.81 0 
0 -9.81 0 
0 -9.81 0 
0 -9.81 0 
0 -9.81 0 
0 -9.81 0 
0 -9.81 0 
0 -9.81 0 
0 -9.81 0 
0 -9.81 0 
0 -9.81 0 
0 -9.81 0 
0 -9.81 0 
0 -9.81 0 
0 -9.81 0 
0 -9.81 0 
0 -9.81 0 
0 -9.81 0 
0 -9.81 0 
0 -9.81 0 
0 -9.81 0 
0 -9.81 0 
0 -9.81 0 
0 -9.81 0 
0 -9.81 0 
0 -9.81 0 
0 -9.81 0 
0 -9.81 0 
0 -9.81 0 
0 -9.81 0 
0 -9.81 0 
0 -9.81 0 
0 -9.81 0 
0 -9.81 0 
0 -9.81 0 
0 -9.81 0 
0 -9.81 0 
0 -9.81 0 
0 -9.81 0 
0 -9.81 0 
0 -9.81 0 
0 -9.81 0 
0 -9.81 0 
0 -9.81 0 
0 -9.81 0 
0 -9.81 0 
0 -9.81 0 
0 -9.81 0 
TENSORS cauchy_stress double
2.67351e-12 7.86101e-13 0
7.86101e-13 6.44909e-12 0
0 0 0

2.42298e-12 4.94365e-13 0
4.94365e-13 6.67189e-12 0
0 0 0

1.49697e-12 4.73071e-13 0
4.73071e-13 3.70382e-12 0
0 0 0

1.22682e-12 7.34805e-13 0
7.34805e-13 3.88085e-12 0
0 0 0

-3.09419e-12 1.19693e-12 0
1.19693e-12 -4.13595e-12 0
0 0 0

-9.53083e-12 1.89491e-12 0
1.89491e-12 -1.10784e-11 0
0 0 0

-4.53272e-13 1.10287e-12 0
1.10287e-12 2.02619e-12 0
0 0 0

-8.51722e-12 1.74796e-12 0
1.74796e-12 -8.71334e-12 0
0 0 0

1.6994e-11 -9.58745e-13 0
-9.58745e-13 5.64448e-11 0
0 0 0

-1.39262e-11 -3.98416e-12 0
-3.98416e-12 -2.37075e-11 0
0 0 0

1.54676e-11 -1.93751e-12 0
-1.93751e-12 5.28832e-11 0
0 0 0

-1.36219e-11 -1.03745e-12 0
-1.03745e-12 -2.29976e-11 0
0 0 0

-3.85479e-12 -1.12425e-12 0
-1.12425e-12 -8.13801e-12 0
0 0 0

2.57416e-12 -5.84701e-13 0
-5.84701e-13 6.07482e-12 0
0 0 0

-2.58577e-12 -1.50847e-12 0
-1.50847e-12 -5.17697e-12 0
0 0 0

1.29634e-12 2.09302e-13 0
2.09302e-13 3.09323e-12 0
0 0 0

2.46783e-12 1.39394e-13 0
1.39394e-13 7.53903e-12 0
0 0 0

-4.48012e-14 3.71234e-13 0
3.71234e-13 3.80558e-12 0
0 0 0

-7.10714e-13 1.3335e-13 0
1.3335e-13 1.22417e-13 0
0 0 0

2.21012e-13 -2.09545e-14 0
-2.09545e-14 4.42581e-12 0
0 0 0

-3.73385e-12 6.88444e-14 0
6.88444e-14 -2.7745e-12 0
0 0 0

-7.74104e-12 4.05574e-13 0
4.05574e-13 -9.75322e-12 0
0 0 0

-4.64018e-12 -1.03486e-12 0
-1.03486e-12 -4.88926e-12 0
0 0 0

-7.24464e-12 1.02065e-13 0
1.02065e-13 -8.59496e-12 0
0 0 0

1.92777e-11 5.24425e-13 0
5.24425e-13 5.50628e-11 0
0 0 0

-1.42758e-11 -2.64928e-12 0
-2.64928e-12 -2.5117e-11 0
0 0 0

1.93238e-11 -9.82621e-13 0
-9.82621e-13 5.51702e-11 0
0 0 0

-1.43351e-11 -9.89369e-13 0
-9.89369e-13 -2.52553e-11 0
0 0 0

-6.96825e-12 -1.61005e-12 0
-1.61005e-12 -1.10065e-11 0
0 0 0

-1.04246e-12 -2.13819e-12 0
-2.13819e-12 -6.2367e-13 0
0 0 0

-5.58874e-12 -2.45275e-12 0
-2.45275e-12 -7.78769e-12 0
0 0 0

2.77821e-12 -1.71607e-13 0
-1.71607e-13 8.29121e-12 0
0 0 0

8.96425e-13 4.07341e-13 0
4.07341e-13 5.26733e-12 0
0 0 0

3.29577e-13 1.00039e-12 0
1.00039e-12 4.86885e-12 0
0 0 0

-4.37444e-13 3.6569e-13 0
3.6569e-13 2.15497e-12 0
0 0 0

-1.16602e-12 -3.86467e-13 0
-3.86467e-13 1.37912e-12 0
0 0 0

-3.72273e-12 6.7505e-13 0
6.7505e-13 -3.04271e-12 0
0 0 0

-8.12706e-12 2.90879e-13 0
2.90879e-13 -1.26088e-11 0
0 0 0

-5.09583e-12 -9.3595e-13 0
-9.3595e-13 -6.24661e-12 0
0 0 0

-7.56021e-12 -5.78024e-13 0
-5.78024e-13 -1.12862e-11 0
0 0 0

2.0006e-11 -5.55904e-13 0
-5.55904e-13 5.30249e-11 0
0 0 0

-1.6448e-11 -1.90833e-12 0
-1.90833e-12 -3.37097e-11 0
0 0 0

1.80256e-11 1.78206e-13 0
1.78206e-13 4.8404e-11 0
0 0 0

-1.62542e-11 -4.50731e-13 0
-4.50731e-13 -3.32576e-11 0
0 0 0

-3.62314e-12 -4.14849e-13 0
-4.14849e-13 -6.07754e-12 0
0 0 0

1.09179e-12 -1.7252e-12 0
-1.7252e-12 2.86831e-12 0
0 0 0

-3.62394e-12 -6.82366e-13 0
-6.82366e-13 -6.07941e-12 0
0 0 0

4.17746e-12 -3.97031e-13 0
-3.97031e-13 1.00682e-11 0
0 0 0

1.53989e-12 -4.64276e-13 0
-4.64276e-13 5.19845e-12 0
0 0 0

1.36741e-12 7.36821e-13 0
7.36821e-13 4.93847e-12 0
0 0 0

4.7504e-13 -1.03372e-13 0
-1.03372e-13 2.71379e-12 0
0 0 0

5.23532e-13 -8.06162e-13 0
-8.06162e-13 2.96943e-12 0
0 0 0

-2.14717e-12 -7.77852e-13 0
-7.77852e-13 -2.19057e-12 0
0 0 0

-1.01225e-11 -1.02718e-12 0
-1.02718e-12 -1.46688e-11 0
0 0 0

-3.41138e-12 -1.54722e-12 0
-1.54722e-12 -5.1404e-12 0
0 0 0

-8.26019e-12 -1.30105e-12 0
-1.30105e-12 -1.03234e-11 0
0 0 0

1.54492e-11 5.73914e-13 0
5.73914e-13 4.84146e-11 0
0 0 0

-1.62568e-11 1.43305e-12 0
1.43305e-12 -3.43598e-11 0
0 0 0

1.64028e-11 2.023e-12 0
2.023e-12 5.06396e-11 0
0 0 0

-1.4023e-11 3.71739e-12 0
3.71739e-12 -2.91476e-11 0
0 0 0

-2.66454e-12 1.97522e-12 0
1.97522e-12 -9.27189e-12 0
0 0 0

2.79419e-12 1.49882e-12 0
1.49882e-12 6.87368e-12 0
0 0 0

-3.12651e-12 2.3719e-12 0
2.3719e-12 -1.03498e-11 0
0 0 0

3.21853e-12 2.1433e-12 0
2.1433e-12 7.8638e-12 0
0 0 0

TENSORS velocity_gradient double
-1.7771e-15 -1.66123e-15 0
-3.55271e-15 3.55271e-15 0
0 0 0

-8.47488e-16 -5.38414e-16 0
-8.88178e-16 9.76996e-15 0
0 0 0

-1.7771e-15 -6.73847e-16 0
-2.66454e-15 -2.66454e-15 0
0 0 0

-8.47488e-16 3.71933e-16 0
-3.55271e-15 1.06581e-14 0
0 0 0

-5.00782e-16 2.66895e-15 0
-1.55431e-15 -1.55431e-15 0
0 0 0

-3.54012e-15 5.88427e-15 0
-6.21725e-15 -9.76996e-15 0
0 0 0

-5.00782e-16 1.32473e-15 0
-4.44089e-16 -4.44089e-16 0
0 0 0

-3.54012e-15 2.27989e-15 0
-5.32907e-15 -8.88178e-15 0
0 0 0

-6.18737e-15 -2.14892e-15 0
-2.9976e-15 2.54241e-14 0
0 0 0

-3.0847e-15 -1.02021e-14 0
-1.77636e-15 -1.24345e-14 0
0 0 0

-6.18737e-15 -1.92477e-15 0
-5.32907e-15 2.30926e-14 0
0 0 0

-3.0847e-15 -6.13988e-15 0
-3.55271e-15 -1.42109e-14 0
0 0 0

3.38869e-16 -4.25656e-15 0
5.88418e-15 -8.32667e-15 0
0 0 0

-7.39428e-17 1.70371e-15 0
-8.88178e-16 6.21725e-15 0
0 0 0

3.38869e-16 -2.7488e-15 0
3.9968e-15 -1.02141e-14 0
0 0 0

-7.39428e-17 6.50706e-16 0
-3.55271e-15 7.10543e-15 0
0 0 0

-9.76732e-16 -4.23623e-16 0
-2.10942e-15 4.996e-15 0
0 0 0

-2.01378e-15 2.16896e-16 0
-1.77636e-15 8.88178e-15 0
0 0 0

-9.76732e-16 -9.10563e-16 0
0 0 0
0 0 0

-2.01378e-15 -1.00352e-15 0
-3.55271e-15 1.06581e-14 0
0 0 0

-3.30871e-15 -1.066e-16 0
-7.77156e-16 -7.77156e-16 0
0 0 0

-5.05122e-15 -4.309e-16 0
0 -7.10543e-15 0
0 0 0

-3.30871e-15 -1.62504e-15 0
-3.9968e-15 -7.54952e-15 0
0 0 0

-5.05122e-15 -2.2481e-15 0
-1.77636e-15 -8.88178e-15 0
0 0 0

-6.35694e-15 -1.69834e-15 0
-1.66533e-15 3.38618e-14 0
0 0 0

-4.58997e-15 -2.96893e-15 0
-5.32907e-15 -1.59872e-14 0
0 0 0

-6.35694e-15 -1.46962e-15 0
-3.9968e-15 2.44249e-14 0
0 0 0

-4.58997e-15 -6.8921e-16 0
-1.77636e-15 -2.30926e-14 0
0 0 0

-2.42622e-15 -1.08701e-15 0
-1.13243e-14 -1.13243e-14 0
0 0 0

-9.59209e-16 7.99579e-16 0
-1.06581e-14 3.55271e-15 0
0 0 0

-2.42622e-15 7.28799e-16 0
-9.32587e-15 -5.77316e-15 0
0 0 0

-9.59209e-16 2.15033e-15 0
-1.24345e-14 1.77636e-15 0
0 0 0

5.52274e-16 -1.54723e-15 0
8.32667e-15 -2.33147e-15 0
0 0 0

-6.75436e-16 -2.30114e-15 0
3.55271e-15 -7.10543e-15 0
0 0 0

5.52274e-16 -2.33361e-15 0
4.44089e-15 4.44089e-15 0
0 0 0

-6.75436e-16 -3.67596e-15 0
-1.77636e-15 1.77636e-15 0
0 0 0

-1.93982e-15 -2.8508e-15 0
2.55351e-15 -1.16573e-14 0
0 0 0

-2.54076e-15 -3.40182e-15 0
4.44089e-15 -1.33227e-14 0
0 0 0

-1.93982e-15 -3.78387e-15 0
2.66454e-15 -7.99361e-15 0
0 0 0

-2.54076e-15 -3.89205e-15 0
-1.77636e-15 -1.59872e-14 0
0 0 0

-2.89749e-15 -1.33336e-15 0
-4.996e-15 2.34257e-14 0
0 0 0

-2.45217e-15 7.40227e-16 0
-7.10543e-15 -2.4869e-14 0
0 0 0

-2.89749e-15 -1.28957e-15 0
4.44089e-16 2.17604e-14 0
0 0 0

-2.45217e-15 1.31938e-15 0
-5.32907e-15 -3.73035e-14 0
0 0 0

-2.11766e-15 1.43701e-15 0
-7.88258e-15 -1.14353e-14 0
0 0 0

-3.25279e-15 2.13551e-15 0
-7.10543e-15 3.55271e-15 0
0 0 0

-2.11766e-15 1.03761e-15 0
-2.22045e-15 -9.32587e-15 0
0 0 0

-3.25279e-15 7.55137e-16 0
-7.10543e-15 3.55271e-15 0
0 0 0

1.2787e-15 -2.48168e-15 0
-1.22125e-15 1.29896e-14 0
0 0 0

2.0526e-15 -3.92914e-15 0
8.88178e-15 1.77636e-15 0
0 0 0

1.2787e-15 -1.99143e-15 0
-1.33227e-15 1.28786e-14 0
0 0 0

2.0526e-15 -3.06069e-15 0
-3.55271e-15 -3.55271e-15 0
0 0 0

2.44907e-15 -4.76015e-15 0
2.33147e-15 -1.18794e-14 0
0 0 0

1.01094e-17 -5.59323e-15 0
5.32907e-15 -2.66454e-14 0
0 0 0

2.44907e-15 -5.77964e-15 0
5.77316e-15 2.22045e-15 0
0 0 0

1.01094e-17 -8.50535e-15 0
-1.77636e-15 -2.66454e-14 0
0 0 0

-2.3081e-15 -1.53592e-15 0
3.21965e-15 2.45359e-14 0
0 0 0

-1.05845e-15 2.53147e-15 0
6.21725e-15 -1.86517e-14 0
0 0 0

-2.3081e-15 -2.07241e-15 0
-4.44089e-16 2.79776e-14 0
0 0 0

-1.05845e-15 4.3765e-15 0
7.10543e-15 -2.4869e-14 0
0 0 0

2.07728e-16 6.02727e-16 0
7.54952e-15 -1.37668e-14 0
0 0 0

-2.0035e-15 -1.33081e-15 0
1.24345e-14 5.32907e-15 0
0 0 0

2.07728e-16 1.32362e-16 0
9.32587e-15 -8.43769e-15 0
0 0 0

-2.0035e-15 -4.12232e-15 0
1.59872e-14 8.88178e-15 0
0 0 0

SCALARS active double 1
LOOKUP_TABLE default
1
1
1
1
1
1
1
1
1
1
1
1
1
1
1
1
1
1
1
1
1
1
1
1
1
1
1
1
1
1
1
1
1
1
1
1
1
1
1
1
1
1
1
1
1
1
1
1
1
1
1
1
1
1
1
1
1
1
1
1
1
1
1
1
SCALARS extent double 1
LOOKUP_TABLE default
0.0125
0.0125
0.0125
0.0125
0.0125
0.0125
0.0125
0.0125
0.0125
0.0125
0.0125
0.0125
0.0125
0.0125
0.0125
0.0125
0.0125
0.0125
0.0125
0.0125
0.0125
0.0125
0.0125
0.0125
0.0125
0.0125
0.0125
0.0125
0.0125
0.0125
0.0125
0.0125
0.0125
0.0125
0.0125
0.0125
0.0125
0.0125
0.0125
0.0125
0.0125
0.0125
0.0125
0.0125
0.0125
0.0125
0.0125
0.0125
0.0125
0.0125
0.0125
0.0125
0.0125
0.0125
0.0125
0.0125
0.0125
0.0125
0.0125
0.0125
0.0125
0.0125
0.0125
0.0125
SCALARS pressure double 1
LOOKUP_TABLE default
-4.5613e-12
-4.54743e-12
-2.6004e-12
-2.55384e-12
3.61507e-12
1.03046e-11
-7.86457e-13
8.61528e-12
-3.67194e-11
1.88169e-11
-3.41754e-11
1.83098e-11
5.9964e-12
-4.32449e-12
3.88137e-12
-2.19478e-12
-5.00343e-12
-1.88039e-12
2.94148e-13
-2.32341e-12
3.25418e-12
8.74713e-12
4.76472e-12
7.9198e-12
-3.71703e-11
1.96964e-11
-3.7247e-11
1.97952e-11
8.98739e-12
8.33063e-13
6.68821e-12
-5.53471e-12
-3.08188e-12
-2.59921e-12
-8.58764e-13
-1.06547e-13
3.38272e-12
1.03679e-11
5.67122e-12
9.42318e-12
-3.65154e-11
2.50788e-11
-3.32148e-11
2.47559e-11
4.85034e-12
-1.98005e-12
4.85168e-12
-7.12284e-12
-3.36917e-12
-3.15294e-12
-1.59442e-12
-1.74648e-12
2.16887e-12
1.23956e-11
4.27589e-12
9.29181e-12
-3.19319e-11
2.53083e-11
-3.35212e-11
2.15853e-11
5.96822e-12
-4.83393e-12
6.73817e-12
-5.54116e-12
SCALARS density double 1
LOOKUP_TABLE default
1000
1000
1000
1000
1000
1000
1000
1000
1000
1000
1000
1000
1000
1000
1000
1000
1000
1000
1000
1000
1000
1000
1000
1000
1000
1000
1000
1000
1000
1000
1000
1000
1000
1000
1000
1000
1000
1000
1000
1000
1000
1000
1000
1000
1000
1000
1000
1000
1000
1000
1000
1000
1000
1000
1000
1000
1000
1000
1000
1000
1000
1000
1000
1000
