# vtk DataFile Version 3.0
Frame: 8, Time: 0.15
ASCII
DATASET UNSTRUCTURED_GRID
POINTS 64 double
0.4125 0.29992 0 
0.4125 0.32492 0 
0.4375 0.29992 0 
0.4375 0.32492 0 
0.4125 0.34992 0 
0.4125 0.37492 0 
0.4375 0.34992 0 
0.4375 0.37492 0 
0.4125 0.39992 0 
0.4125 0.42492 0 
0.4375 0.39992 0 
0.4375 0.42492 0 
0.4125 0.44992 0 
0.4125 0.47492 0 
0.4375 0.44992 0 
0.4375 0.47492 0 
0.4625 0.29992 0 
0.4625 0.32492 0 
0.4875 0.29992 0 
0.4875 0.32492 0 
0.4625 0.34992 0 
0.4625 0.37492 0 
0.4875 0.34992 0 
0.4875 0.37492 0 
0.4625 0.39992 0 
0.4625 0.42492 0 
0.4875 0.39992 0 
0.4875 0.42492 0 
0.4625 0.44992 0 
0.4625 0.47492 0 
0.4875 0.44992 0 
0.4875 0.47492 0 
0.5125 0.29992 0 
0.5125 0.32492 0 
0.5375 0.29992 0 
0.5375 0.32492 0 
0.5125 0.34992 0 
0.5125 0.37492 0 
0.5375 0.34992 0 
0.5375 0.37492 0 
0.5125 0.39992 0 
0.5125 0.42492 0 
0.5375 0.39992 0 
0.5375 0.42492 0 
0.5125 0.44992 0 
0.5125 0.47492 0 
0.5375 0.44992 0 
0.5375 0.47492 0 
0.5625 0.29992 0 
0.5625 0.32492 0 
0.5875 0.29992 0 
0.5875 0.32492 0 
0.5625 0.34992 0 
0.5625 0.37492 0 
0.5875 0.34992 0 
0.5875 0.37492 0 
0.5625 0.39992 0 
0.5625 0.42492 0 
0.5875 0.39992 0 
0.5875 0.42492 0 
0.5625 0.44992 0 
0.5625 0.47492 0 
0.5875 0.44992 0 
0.5875 0.47492 0 
CELLS 64 128
1 0
1 1
1 2
1 3
1 4
1 5
1 6
1 7
1 8
1 9
1 10
1 11
1 12
1 13
1 14
1 15
1 16
1 17
1 18
1 19
1 20
1 21
1 22
1 23
1 24
1 25
1 26
1 27
1 28
1 29
1 30
1 31
1 32
1 33
1 34
1 35
1 36
1 37
1 38
1 39
1 40
1 41
1 42
1 43
1 44
1 45
1 46
1 47
1 48
1 49
1 50
1 51
1 52
1 53
1 54
1 55
1 56
1 57
1 58
1 59
1 60
1 61
1 62
1 63
CELL_TYPES 64
1
1
1
1
1
1
1
1
1
1
1
1
1
1
1
1
1
1
1
1
1
1
1
1
1
1
1
1
1
1
1
1
1
1
1
1
1
1
1
1
1
1
1
1
1
1
1
1
1
1
1
1
1
1
1
1
1
1
1
1
1
1
1
1
POINT_DATA 64
VECTORS displacement double
-5.87746e-17 -0.11258 0 
-4.65199e-17 -0.11258 0 
-5.59115e-17 -0.11258 0 
-4.74086e-17 -0.11258 0 
-4.07838e-17 -0.11258 0 
-4.04248e-17 -0.11258 0 
-4.20719e-17 -0.11258 0 
-4.05119e-17 -0.11258 0 
-3.95761e-17 -0.11258 0 
-4.05128e-17 -0.11258 0 
-3.92943e-17 -0.11258 0 
-3.8334e-17 -0.11258 0 
-3.4179e-17 -0.11258 0 
-2.85278e-17 -0.11258 0 
-3.39493e-17 -0.11258 0 
-2.90001e-17 -0.11258 0 
-5.18441e-17 -0.11258 0 
-4.68351e-17 -0.11258 0 
-4.65725e-17 -0.11258 0 
-4.47996e-17 -0.11258 0 
-4.25442e-17 -0.11258 0 
-4.05148e-17 -0.11258 0 
-4.22007e-17 -0.11258 0 
-4.04334e-17 -0.11258 0 
-3.92303e-17 -0.11258 0 
-3.71822e-17 -0.11258 0 
-3.93841e-17 -0.11258 0 
-3.70576e-17 -0.11258 0 
-3.41794e-17 -0.11258 0 
-2.96598e-17 -0.11258 0 
-3.48694e-17 -0.11258 0 
-3.05068e-17 -0.11258 0 
-4.23194e-17 -0.11258 0 
-4.28743e-17 -0.11258 0 
-3.90846e-17 -0.11258 0 
-4.10592e-17 -0.11258 0 
-4.18894e-17 -0.11258 0 
-4.01853e-17 -0.11258 0 
-4.16102e-17 -0.11258 0 
-3.97705e-17 -0.11258 0 
-3.91614e-17 -0.11258 0 
-3.69077e-17 -0.11258 0 
-3.85623e-17 -0.11258 0 
-3.67323e-17 -0.11258 0 
-3.56938e-17 -0.11258 0 
-3.14581e-17 -0.11258 0 
-3.66524e-17 -0.11258 0 
-3.25135e-17 -0.11258 0 
-3.71667e-17 -0.11258 0 
-4.12235e-17 -0.11258 0 
-3.65656e-17 -0.11258 0 
-4.33672e-17 -0.11258 0 
-4.17595e-17 -0.11258 0 
-3.89906e-17 -0.11258 0 
-4.23375e-17 -0.11258 0 
-3.78455e-17 -0.11258 0 
-3.76948e-17 -0.11258 0 
-3.49884e-17 -0.11258 0 
-3.65591e-17 -0.11258 0 
-3.1676e-17 -0.11258 0 
-3.59466e-17 -0.11258 0 
-3.36805e-17 -0.11258 0 
-3.35764e-17 -0.11258 0 
-3.49592e-17 -0.11258 0 
VECTORS velocity double
1.26748e-15 -1.48131 0 
-1.36131e-15 -1.48131 0 
3.56797e-16 -1.48131 0 
-4.71311e-16 -1.48131 0 
-1.68244e-17 -1.48131 0 
2.05111e-15 -1.48131 0 
-1.70524e-16 -1.48131 0 
1.11584e-16 -1.48131 0 
1.37882e-15 -1.48131 0 
-1.7972e-15 -1.48131 0 
-2.208e-16 -1.48131 0 
-9.43342e-16 -1.48131 0 
-2.95688e-15 -1.48131 0 
-4.82906e-15 -1.48131 0 
-2.27617e-15 -1.48131 0 
-3.29805e-15 -1.48131 0 
-3.99632e-16 -1.48131 0 
-2.11793e-16 -1.48131 0 
-1.0018e-15 -1.48131 0 
-5.82758e-16 -1.48131 0 
-2.71595e-16 -1.48131 0 
-7.45747e-16 -1.48131 0 
-3.20037e-16 -1.48131 0 
-5.20886e-16 -1.48131 0 
-8.94671e-16 -1.48131 0 
-5.81597e-16 -1.48131 0 
-6.42788e-16 -1.48131 0 
-7.11968e-16 -1.48131 0 
-1.60034e-15 -1.48131 0 
-2.07475e-15 -1.48131 0 
-9.29368e-16 -1.48131 0 
-1.15916e-15 -1.48131 0 
-1.39623e-15 -1.48131 0 
-8.06076e-16 -1.48131 0 
-1.58291e-15 -1.48131 0 
-8.81747e-16 -1.48131 0 
-5.13128e-16 -1.48131 0 
-3.60241e-16 -1.48131 0 
-8.50868e-16 -1.48131 0 
-2.63814e-16 -1.48131 0 
-2.3161e-16 -1.48131 0 
-5.92982e-16 -1.48131 0 
3.38866e-16 -1.48131 0 
-2.24637e-16 -1.48131 0 
-2.3003e-16 -1.48131 0 
-5.59633e-17 -1.48131 0 
4.97678e-16 -1.48131 0 
1.23484e-15 -1.48131 0 
-2.01474e-15 -1.48131 0 
-9.75693e-16 -1.48131 0 
-2.69172e-15 -1.48131 0 
-1.08791e-15 -1.48131 0 
-1.20789e-15 -1.48131 0 
-9.59475e-16 -1.48131 0 
-1.58419e-15 -1.48131 0 
-2.44722e-15 -1.48131 0 
-4.41946e-18 -1.48131 0 
7.89835e-16 -1.48131 0 
-1.26147e-15 -1.48131 0 
2.45044e-15 -1.48131 0 
1.67327e-15 -1.48131 0 
2.50485e-15 -1.48131 0 
3.29674e-15 -1.48131 0 
3.75408e-15 -1.48131 0 
SCALARS mass double 1
LOOKUP_TABLE default
0.625
0.625
0.625
0.625
0.625
0.625
0.625
0.625
0.625
0.625
0.625
0.625
0.625
0.625
0.625
0.625
0.625
0.625
0.625
0.625
0.625
0.625
0.625
0.625
0.625
0.625
0.625
0.625
0.625
0.625
0.625
0.625
0.625
0.625
0.625
0.625
0.625
0.625
0.625
0.625
0.625
0.625
0.625
0.625
0.625
0.625
0.625
0.625
0.625
0.625
0.625
0.625
0.625
0.625
0.625
0.625
0.625
0.625
0.625
0.625
0.625
0.625
0.625
0.625
SCALARS volume double 1
LOOKUP_TABLE default
0.000625
0.000625
0.000625
0.000625
0.000625
0.000625
0.000625
0.000625
0.000625
0.000625
0.000625
0.000625
0.000625
0.000625
0.000625
0.000625
0.000625
0.000625
0.000625
0.000625
0.000625
0.000625
0.000625
0.000625
0.000625
0.000625
0.000625
0.000625
0.000625
0.000625
0.000625
0.000625
0.000625
0.000625
0.000625
0.000625
0.000625
0.000625
0.000625
0.000625
0.000625
0.000625
0.000625
0.000625
0.000625
0.000625
0.000625
0.000625
0.000625
0.000625
0.000625
0.000625
0.000625
0.000625
0.000625
0.000625
0.000625
0.000625
0.000625
0.000625
0.000625
0.000625
0.000625
0.000625
VECTORS momentum double
7.92176e-16 -0.925819 0 
-8.5082e-16 -0.925819 0 
2.22998e-16 -0.925819 0 
-2.9457e-16 -0.925819 0 
-1.05153e-17 -0.925819 0 
1.28194e-15 -0.925819 0 
-1.06577e-16 -0.925819 0 
6.97399e-17 -0.925819 0 
8.61765e-16 -0.925819 0 
-1.12325e-15 -0.925819 0 
-1.38e-16 -0.925819 0 
-5.89589e-16 -0.925819 0 
-1.84805e-15 -0.925819 0 
-3.01816e-15 -0.925819 0 
-1.42261e-15 -0.925819 0 
-2.06128e-15 -0.925819 0 
-2.4977e-16 -0.925819 0 
-1.32371e-16 -0.925819 0 
-6.26128e-16 -0.925819 0 
-3.64224e-16 -0.925819 0 
-1.69747e-16 -0.925819 0 
-4.66092e-16 -0.925819 0 
-2.00023e-16 -0.925819 0 
-3.25553e-16 -0.925819 0 
-5.59169e-16 -0.925819 0 
-3.63498e-16 -0.925819 0 
-4.01743e-16 -0.925819 0 
-4.4498e-16 -0.925819 0 
-1.00021e-15 -0.925819 0 
-1.29672e-15 -0.925819 0 
-5.80855e-16 -0.925819 0 
-7.24474e-16 -0.925819 0 
-8.72644e-16 -0.925819 0 
-5.03797e-16 -0.925819 0 
-9.89319e-16 -0.925819 0 
-5.51092e-16 -0.925819 0 
-3.20705e-16 -0.925819 0 
-2.25151e-16 -0.925819 0 
-5.31792e-16 -0.925819 0 
-1.64884e-16 -0.925819 0 
-1.44756e-16 -0.925819 0 
-3.70614e-16 -0.925819 0 
2.11791e-16 -0.925819 0 
-1.40398e-16 -0.925819 0 
-1.43769e-16 -0.925819 0 
-3.49771e-17 -0.925819 0 
3.11049e-16 -0.925819 0 
7.71773e-16 -0.925819 0 
-1.25921e-15 -0.925819 0 
-6.09808e-16 -0.925819 0 
-1.68233e-15 -0.925819 0 
-6.79946e-16 -0.925819 0 
-7.5493e-16 -0.925819 0 
-5.99672e-16 -0.925819 0 
-9.90119e-16 -0.925819 0 
-1.52952e-15 -0.925819 0 
-2.76216e-18 -0.925819 0 
4.93647e-16 -0.925819 0 
-7.88416e-16 -0.925819 0 
1.53152e-15 -0.925819 0 
1.04579e-15 -0.925819 0 
1.56553e-15 -0.925819 0 
2.06046e-15 -0.925819 0 
2.3463e-15 -0.925819 0 
VECTORS body_force double
0 -9.81 0 
0 -9.81 0 
0 -9.81 0 
0 -9.81 0 
0 -9.81 0 
0 -9.81 0 
0 -9.81 0 
0 -9.81 0 
0 -9.81 0 
0 -9.81 0 
0 -9.81 0 
0 -9.81 0 
0 -9.81 0 
0 -9.81 0 
0 -9.81 0 
0 -9.81 0 
0 -9.81 0 
0 -9.81 0 
0 -9.81 0 
0 -9.81 0 
0 -9.81 0 
0 -9.81 0 
0 -9.81 0 
0 -9.81 0 
0 -9.81 0 
0 -9.81 0 
0 -9.81 0 
0 -9.81 0 
0 -9.81 0 
0 -9.81 0 
0 -9.81 0 
0 -9.81 0 
0 -9.81 0 
0 -9.81 0 
0 -9.81 0 
0 -9.81 0 
0 -9.81 0 
0 -9.81 0 
0 -9.81 0 
0 -9.81 0 
0 -9.81 0 
0 -9.81 0 
0 -9.81 0 
0 -9.81 0 
0 -9.81 0 
0 -9.81 0 
0 -9.81 0 
0 -9.81 0 
0 -9.81 0 
0 -9.81 0 
0 -9.81 0 
0 -9.81 0 
0 -9.81 0 
0 -9.81 0 
0 -9.81 0 
0 -9.81 0 
0 -9.81 0 
0 -9.81 0 
0 -9.81 0 
0 -9.81 0 
0 -9.81 0 
0 -9.81 0 
0 -9.81 0 
0 -9.81 0 
TENSORS cauchy_stress double
-9.09315e-12 1.736e-12 0
1.736e-12 -5.05829e-11 0
0 0 0

-1.81414e-11 1.28846e-11 0
1.28846e-11 -3.32155e-11 0
0 0 0

-7.82974e-12 -4.3817e-12 0
-4.3817e-12 -4.76349e-11 0
0 0 0

-2.16539e-12 -1.18262e-14 0
-1.18262e-14 4.06188e-12 0
0 0 0

9.4577e-12 1.34467e-12 0
1.34467e-12 3.52791e-11 0
0 0 0

-2.43412e-12 -7.80387e-13 0
-7.80387e-13 -4.78562e-12 0
0 0 0

1.24909e-11 4.64708e-13 0
4.64708e-13 4.23566e-11 0
0 0 0

-2.60226e-12 -1.40316e-12 0
-1.40316e-12 -5.17794e-12 0
0 0 0

2.18203e-11 -2.47644e-12 0
-2.47644e-12 4.80241e-11 0
0 0 0

9.77206e-12 -1.26999e-11 0
-1.26999e-11 4.54746e-13 0
0 0 0

-6.24343e-12 -5.30531e-12 0
-5.30531e-12 -1.74579e-11 0
0 0 0

6.79969e-13 -7.20677e-13 0
-7.20677e-13 -2.07601e-11 0
0 0 0

-1.42071e-11 2.16126e-12 0
2.16126e-12 -3.55059e-11 0
0 0 0

9.94209e-12 -1.54946e-12 0
-1.54946e-12 2.80422e-11 0
0 0 0

-1.62716e-11 -4.23908e-12 0
-4.23908e-12 -4.03229e-11 0
0 0 0

9.92127e-12 3.32348e-12 0
3.32348e-12 2.79937e-11 0
0 0 0

8.19456e-12 1.02727e-11 0
1.02727e-11 -3.49471e-11 0
0 0 0

1.20366e-11 1.06085e-11 0
1.06085e-11 7.20816e-12 0
0 0 0

4.18775e-12 9.23088e-12 0
9.23088e-12 -4.42963e-11 0
0 0 0

1.15818e-11 1.01233e-12 0
1.01233e-12 6.14705e-12 0
0 0 0

2.58266e-11 -6.29487e-12 0
-6.29487e-12 5.67394e-11 0
0 0 0

-9.26854e-12 -1.10207e-12 0
-1.10207e-12 -2.24617e-11 0
0 0 0

4.05991e-12 -2.30259e-12 0
-2.30259e-12 5.95058e-12 0
0 0 0

-1.66885e-12 -5.44308e-13 0
-5.44308e-13 -4.72911e-12 0
0 0 0

-5.20106e-12 1.75229e-12 0
1.75229e-12 -1.05587e-11 0
0 0 0

-4.23055e-12 2.50939e-12 0
2.50939e-12 -1.11493e-11 0
0 0 0

-2.21387e-12 9.86972e-13 0
9.86972e-13 -3.58863e-12 0
0 0 0

-5.60047e-14 3.50534e-12 0
3.50534e-12 -1.40873e-12 0
0 0 0

-2.27687e-11 3.6805e-12 0
3.6805e-12 -4.60499e-11 0
0 0 0

1.80409e-12 -1.92199e-12 0
-1.92199e-12 1.28972e-11 0
0 0 0

-3.13231e-11 6.73662e-12 0
6.73662e-12 -6.60103e-11 0
0 0 0

5.431e-12 8.862e-12 0
8.862e-12 2.136e-11 0
0 0 0

4.5347e-12 -7.55479e-13 0
-7.55479e-13 -2.25958e-11 0
0 0 0

-7.57955e-12 3.56925e-12 0
3.56925e-12 -3.63019e-11 0
0 0 0

-2.55018e-12 -1.7912e-12 0
-1.7912e-12 -3.91272e-11 0
0 0 0

7.81359e-12 2.88288e-13 0
2.88288e-13 -3.84597e-13 0
0 0 0

2.22145e-11 7.158e-12 0
7.158e-12 4.897e-11 0
0 0 0

-5.31823e-12 2.68702e-12 0
2.68702e-12 -1.66633e-11 0
0 0 0

2.26468e-11 1.11638e-11 0
1.11638e-11 4.99788e-11 0
0 0 0

-1.23351e-11 -5.8879e-13 0
-5.8879e-13 -3.30359e-11 0
0 0 0

4.1472e-12 -9.08615e-13 0
-9.08615e-13 3.53192e-12 0
0 0 0

-9.1888e-12 2.05636e-12 0
2.05636e-12 -2.32389e-11 0
0 0 0

1.01308e-12 6.86562e-13 0
6.86562e-13 -3.78101e-12 0
0 0 0

-1.02905e-11 -2.37337e-13 0
-2.37337e-13 -2.58094e-11 0
0 0 0

-1.9828e-11 -5.91844e-12 0
-5.91844e-12 -3.64333e-11 0
0 0 0

-1.3291e-12 -8.87488e-13 0
-8.87488e-13 7.72351e-12 0
0 0 0

-2.00298e-11 -3.02577e-12 0
-3.02577e-12 -3.6904e-11 0
0 0 0

3.05041e-12 3.01161e-12 0
3.01161e-12 1.79424e-11 0
0 0 0

-1.02614e-11 5.27092e-12 0
5.27092e-12 -3.01083e-11 0
0 0 0

-1.65388e-11 -1.33779e-11 0
-1.33779e-11 -1.66043e-11 0
0 0 0

-1.80229e-11 5.92913e-12 0
5.92913e-12 -4.82182e-11 0
0 0 0

-2.1823e-11 -2.56502e-12 0
-2.56502e-12 -2.89341e-11 0
0 0 0

1.36469e-11 2.20749e-12 0
2.20749e-12 3.77706e-11 0
0 0 0

-1.21284e-12 2.81221e-12 0
2.81221e-12 -1.45745e-11 0
0 0 0

7.64852e-12 9.12935e-12 0
9.12935e-12 2.37744e-11 0
0 0 0

-3.18562e-12 3.82249e-12 0
3.82249e-12 -1.91776e-11 0
0 0 0

2.44989e-12 2.01405e-12 0
2.01405e-12 -5.9324e-12 0
0 0 0

-1.49292e-12 1.65941e-12 0
1.65941e-12 -3.74571e-11 0
0 0 0

1.5821e-11 5.67381e-12 0
5.67381e-12 2.52669e-11 0
0 0 0

1.26832e-11 7.48718e-12 0
7.48718e-12 -4.37943e-12 0
0 0 0

-8.54918e-12 3.80242e-12 0
3.80242e-12 -4.4258e-11 0
0 0 0

-3.69373e-12 -9.5799e-13 0
-9.5799e-13 4.49575e-12 0
0 0 0

-6.63764e-12 -4.55506e-12 0
-4.55506e-12 -3.97977e-11 0
0 0 0

4.71781e-12 1.51278e-12 0
1.51278e-12 2.41227e-11 0
0 0 0

TENSORS velocity_gradient double
-5.73574e-16 -4.98623e-15 0
3.90799e-14 -9.59233e-14 0
0 0 0

-3.2032e-15 -1.63381e-15 0
4.08562e-14 -1.59872e-14 0
0 0 0

-5.73574e-16 -6.60401e-15 0
3.73035e-14 -7.63833e-14 0
0 0 0

-3.2032e-15 -4.60072e-15 0
2.84217e-14 -1.42109e-14 0
0 0 0

-6.86251e-15 2.93961e-15 0
2.35367e-14 2.22045e-15 0
0 0 0

-1.39152e-14 5.8374e-15 0
3.55271e-15 -1.06581e-14 0
0 0 0

-6.86251e-15 -2.79692e-15 0
2.39808e-14 -1.86517e-14 0
0 0 0

-1.39152e-14 -1.654e-15 0
7.10543e-15 -3.55271e-14 0
0 0 0

-1.72944e-14 -3.2027e-14 0
-2.53131e-14 1.73195e-14 0
0 0 0

-5.20072e-16 -5.60184e-14 0
-2.66454e-14 3.01981e-14 0
0 0 0

-1.72944e-14 -2.30695e-14 0
-2.39808e-14 -2.39808e-14 0
0 0 0

-5.20072e-16 -3.66386e-14 0
-3.55271e-14 7.10543e-15 0
0 0 0

1.65236e-14 -3.74815e-14 0
-3.68594e-14 4.13003e-14 0
0 0 0

2.21178e-14 -2.57363e-14 0
-3.73035e-14 5.32907e-15 0
0 0 0

1.65236e-14 -2.74465e-14 0
-4.44089e-14 3.37508e-14 0
0 0 0

2.21178e-14 -2.16223e-14 0
-4.26326e-14 4.26326e-14 0
0 0 0

-2.06252e-14 -4.96292e-15 0
2.62013e-14 -1.15907e-13 0
0 0 0

-1.3665e-14 -2.2607e-15 0
3.37508e-14 -2.30926e-14 0
0 0 0

-2.06252e-14 -6.29768e-17 0
2.39808e-14 -1.32339e-13 0
0 0 0

-1.3665e-14 5.38623e-15 0
3.55271e-14 -7.10543e-15 0
0 0 0

-6.63778e-15 -3.08114e-15 0
2.13163e-14 -4.26326e-14 0
0 0 0

-2.64769e-15 -3.60099e-15 0
1.77636e-15 -6.92779e-14 0
0 0 0

-6.63778e-15 2.08693e-15 0
2.04281e-14 -5.06262e-14 0
0 0 0

-2.64769e-15 -3.55553e-18 0
1.42109e-14 -5.68434e-14 0
0 0 0

2.32395e-15 -1.40435e-14 0
-1.24345e-14 -1.24345e-14 0
0 0 0

1.40304e-14 -2.06601e-14 0
-7.10543e-15 0 0
0 0 0

2.32395e-15 -4.94926e-15 0
-1.86517e-14 -4.44089e-15 0
0 0 0

1.40304e-14 -8.08292e-15 0
-7.10543e-15 7.10543e-15 0
0 0 0

2.60621e-14 -1.72314e-14 0
-1.02141e-14 4.66294e-14 0
0 0 0

3.54205e-14 -1.50589e-14 0
-3.55271e-15 4.61853e-14 0
0 0 0

2.60621e-14 -6.83616e-15 0
-1.42109e-14 2.84217e-14 0
0 0 0

3.54205e-14 -6.04619e-15 0
-7.10543e-15 6.39488e-14 0
0 0 0

-1.51078e-14 3.82752e-15 0
-2.17604e-14 -1.42553e-13 0
0 0 0

-1.21648e-14 1.06916e-14 0
-1.95399e-14 -4.79616e-14 0
0 0 0

-1.51078e-14 6.70857e-15 0
-7.10543e-15 -1.49214e-13 0
0 0 0

-1.21648e-14 1.36553e-14 0
0 -2.84217e-14 0
0 0 0

-8.30782e-15 7.93929e-15 0
-2.08722e-14 -8.4821e-14 0
0 0 0

-7.32741e-17 6.19542e-15 0
5.32907e-15 -7.99361e-14 0
0 0 0

-8.30782e-15 1.44759e-14 0
-2.66454e-15 -3.10862e-14 0
0 0 0

-7.32741e-17 1.49959e-14 0
0 -5.68434e-14 0
0 0 0

9.37677e-15 5.29721e-15 0
2.53131e-14 -1.73195e-14 0
0 0 0

2.20101e-14 4.72809e-15 0
3.01981e-14 1.59872e-14 0
0 0 0

9.37677e-15 1.66959e-14 0
2.39808e-14 2.66454e-15 0
0 0 0

2.20101e-14 1.7773e-14 0
1.42109e-14 1.42109e-14 0
0 0 0

3.40597e-14 2.8934e-15 0
2.39808e-14 3.81917e-14 0
0 0 0

4.12317e-14 1.73091e-15 0
3.01981e-14 3.01981e-14 0
0 0 0

3.40597e-14 1.19573e-14 0
3.28626e-14 5.41789e-14 0
0 0 0

4.12317e-14 8.27236e-15 0
4.9738e-14 4.9738e-14 0
0 0 0

1.38557e-15 5.68508e-15 0
-4.88498e-14 -1.19904e-13 0
0 0 0

-4.31031e-15 1.21612e-14 0
-3.01981e-14 -3.73035e-14 0
0 0 0

1.38557e-15 7.57054e-16 0
-3.73035e-14 -1.22569e-13 0
0 0 0

-4.31031e-15 6.20938e-15 0
-3.55271e-14 -2.13163e-14 0
0 0 0

-9.57142e-15 1.61498e-14 0
-2.39808e-14 -2.39808e-14 0
0 0 0

-1.14475e-14 1.8677e-14 0
-2.13163e-14 -3.55271e-14 0
0 0 0

-9.57142e-15 1.29608e-14 0
-2.75335e-14 -4.17444e-14 0
0 0 0

-1.14475e-14 1.72385e-14 0
0 -3.55271e-14 0
0 0 0

-9.38034e-15 2.86872e-14 0
5.77316e-15 -1.55431e-14 0
0 0 0

9.86719e-15 3.50297e-14 0
5.32907e-15 3.37508e-14 0
0 0 0

-9.38034e-15 4.12711e-14 0
-9.76996e-15 -2.66454e-15 0
0 0 0

9.86719e-15 5.64985e-14 0
-2.13163e-14 2.13163e-14 0
0 0 0

2.85378e-14 2.16274e-14 0
-4.88498e-15 5.90639e-14 0
0 0 0

3.34954e-14 1.31354e-14 0
2.66454e-14 2.66454e-14 0
0 0 0

2.85378e-14 3.19037e-14 0
-1.77636e-15 6.21725e-14 0
0 0 0

3.34954e-14 1.63201e-14 0
3.55271e-14 9.23706e-14 0
0 0 0

SCALARS active double 1
LOOKUP_TABLE default
1
1
1
1
1
1
1
1
1
1
1
1
1
1
1
1
1
1
1
1
1
1
1
1
1
1
1
1
1
1
1
1
1
1
1
1
1
1
1
1
1
1
1
1
1
1
1
1
1
1
1
1
1
1
1
1
1
1
1
1
1
1
1
1
SCALARS extent double 1
LOOKUP_TABLE default
0.0125
0.0125
0.0125
0.0125
0.0125
0.0125
0.0125
0.0125
0.0125
0.0125
0.0125
0.0125
0.0125
0.0125
0.0125
0.0125
0.0125
0.0125
0.0125
0.0125
0.0125
0.0125
0.0125
0.0125
0.0125
0.0125
0.0125
0.0125
0.0125
0.0125
0.0125
0.0125
0.0125
0.0125
0.0125
0.0125
0.0125
0.0125
0.0125
0.0125
0.0125
0.0125
0.0125
0.0125
0.0125
0.0125
0.0125
0.0125
0.0125
0.0125
0.0125
0.0125
0.0125
0.0125
0.0125
0.0125
0.0125
0.0125
0.0125
0.0125
0.0125
0.0125
0.0125
0.0125
SCALARS pressure double 1
LOOKUP_TABLE default
2.9838e-11
2.56784e-11
2.77323e-11
-9.48243e-13
-2.23684e-11
3.60987e-12
-2.74238e-11
3.8901e-12
-3.49222e-11
-5.1134e-12
1.18507e-11
1.00401e-11
2.48565e-11
-1.89922e-11
2.82972e-11
-1.89575e-11
1.33762e-11
-9.62236e-12
2.00543e-11
-8.86442e-12
-4.1283e-11
1.58651e-11
-5.00524e-12
3.19898e-12
7.8799e-12
7.68994e-12
2.90125e-12
7.32368e-13
3.44093e-11
-7.35064e-12
4.86667e-11
-1.33955e-11
9.03057e-12
2.19407e-11
2.08387e-11
-3.7145e-12
-3.55922e-11
1.09908e-11
-3.63128e-11
2.26855e-11
-3.83956e-12
1.62138e-11
1.38396e-12
1.805e-11
2.81307e-11
-3.1972e-12
2.84669e-11
-1.04964e-11
2.01849e-11
1.65715e-11
3.31206e-11
2.53786e-11
-2.57088e-11
7.89366e-12
-1.57114e-11
1.11816e-11
1.74125e-12
1.9475e-11
-2.05439e-11
-4.15191e-12
2.64036e-11
-4.01008e-13
2.32177e-11
-1.44202e-11
SCALARS density double 1
LOOKUP_TABLE default
1000
1000
1000
1000
1000
1000
1000
1000
1000
1000
1000
1000
1000
1000
1000
1000
1000
1000
1000
1000
1000
1000
1000
1000
1000
1000
1000
1000
1000
1000
1000
1000
1000
1000
1000
1000
1000
1000
1000
1000
1000
1000
1000
1000
1000
1000
1000
1000
1000
1000
1000
1000
1000
1000
1000
1000
1000
1000
1000
1000
1000
1000
1000
1000
