# vtk DataFile Version 3.0
Frame: 58, Time: 0.984
ASCII
DATASET UNSTRUCTURED_GRID
POINTS 64 double
0.085779 0.0525271 0 
0.0792565 0.075902 0 
0.10899 0.0614521 0 
0.102557 0.0851545 0 
0.0695369 0.0979301 0 
0.0610765 0.121913 0 
0.0940968 0.107923 0 
0.0855679 0.131543 0 
0.0523462 0.14394 0 
0.0453262 0.168581 0 
0.0774776 0.15536 0 
0.0686587 0.178055 0 
0.0415306 0.194193 0 
0.0362391 0.219556 0 
0.0634281 0.203021 0 
0.0557609 0.227202 0 
0.133599 0.0701114 0 
0.125101 0.0935822 0 
0.157617 0.0760126 0 
0.148657 0.0995575 0 
0.115773 0.117276 0 
0.106819 0.140322 0 
0.141404 0.124079 0 
0.132397 0.14665 0 
0.0986337 0.1644 0 
0.0894429 0.187626 0 
0.124061 0.170338 0 
0.116423 0.193235 0 
0.0841216 0.21267 0 
0.0755539 0.238089 0 
0.109681 0.218504 0 
0.0996363 0.243095 0 
0.182852 0.0824356 0 
0.170561 0.104929 0 
0.209275 0.0939123 0 
0.194114 0.114506 0 
0.163861 0.130144 0 
0.154888 0.154179 0 
0.188012 0.13815 0 
0.178365 0.160923 0 
0.14725 0.178772 0 
0.140044 0.201762 0 
0.170725 0.184976 0 
0.162253 0.209431 0 
0.132455 0.22654 0 
0.123692 0.250851 0 
0.154286 0.234193 0 
0.145387 0.25865 0 
0.233451 0.103459 0 
0.216448 0.124709 0 
0.256708 0.113198 0 
0.240178 0.133991 0 
0.210932 0.148018 0 
0.201359 0.170814 0 
0.235527 0.156435 0 
0.225185 0.179101 0 
0.193643 0.193991 0 
0.185827 0.218215 0 
0.21687 0.203638 0 
0.210734 0.228075 0 
0.176219 0.242442 0 
0.167267 0.265699 0 
0.200617 0.252592 0 
0.195339 0.276581 0 
CELLS 64 128
1 0
1 1
1 2
1 3
1 4
1 5
1 6
1 7
1 8
1 9
1 10
1 11
1 12
1 13
1 14
1 15
1 16
1 17
1 18
1 19
1 20
1 21
1 22
1 23
1 24
1 25
1 26
1 27
1 28
1 29
1 30
1 31
1 32
1 33
1 34
1 35
1 36
1 37
1 38
1 39
1 40
1 41
1 42
1 43
1 44
1 45
1 46
1 47
1 48
1 49
1 50
1 51
1 52
1 53
1 54
1 55
1 56
1 57
1 58
1 59
1 60
1 61
1 62
1 63
CELL_TYPES 64
1
1
1
1
1
1
1
1
1
1
1
1
1
1
1
1
1
1
1
1
1
1
1
1
1
1
1
1
1
1
1
1
1
1
1
1
1
1
1
1
1
1
1
1
1
1
1
1
1
1
1
1
1
1
1
1
1
1
1
1
1
1
1
1
POINT_DATA 64
VECTORS displacement double
-0.326721 -0.359973 0 
-0.333244 -0.361598 0 
-0.32851 -0.351048 0 
-0.334943 -0.352345 0 
-0.342963 -0.36457 0 
-0.351424 -0.365587 0 
-0.343403 -0.354577 0 
-0.351932 -0.355957 0 
-0.360154 -0.36856 0 
-0.367174 -0.368919 0 
-0.360022 -0.35714 0 
-0.368841 -0.359445 0 
-0.370969 -0.368307 0 
-0.376261 -0.367944 0 
-0.374072 -0.359479 0 
-0.381739 -0.360298 0 
-0.328901 -0.342389 0 
-0.337399 -0.343918 0 
-0.329883 -0.336487 0 
-0.338843 -0.337942 0 
-0.346727 -0.345224 0 
-0.355681 -0.347178 0 
-0.346096 -0.338421 0 
-0.355103 -0.34085 0 
-0.363866 -0.3481 0 
-0.373057 -0.349874 0 
-0.363439 -0.342162 0 
-0.371077 -0.344265 0 
-0.378378 -0.34983 0 
-0.386946 -0.349411 0 
-0.377819 -0.343996 0 
-0.387864 -0.344405 0 
-0.329648 -0.330064 0 
-0.341939 -0.332571 0 
-0.328225 -0.318588 0 
-0.343386 -0.322994 0 
-0.348639 -0.332356 0 
-0.357612 -0.333321 0 
-0.349488 -0.32435 0 
-0.359135 -0.326577 0 
-0.36525 -0.333728 0 
-0.372456 -0.335738 0 
-0.366775 -0.327524 0 
-0.375247 -0.328069 0 
-0.380045 -0.33596 0 
-0.388808 -0.336649 0 
-0.383214 -0.328307 0 
-0.392113 -0.32885 0 
-0.329049 -0.309041 0 
-0.346052 -0.312791 0 
-0.330792 -0.299302 0 
-0.347322 -0.303509 0 
-0.351568 -0.314482 0 
-0.361141 -0.316686 0 
-0.351973 -0.306065 0 
-0.362315 -0.308399 0 
-0.368857 -0.318509 0 
-0.376673 -0.319285 0 
-0.37063 -0.308862 0 
-0.376766 -0.309425 0 
-0.386281 -0.320058 0 
-0.395233 -0.321801 0 
-0.386883 -0.309908 0 
-0.392161 -0.310919 0 
VECTORS velocity double
1.0209 0.194646 0 
0.699023 0.560245 0 
0.723447 0.461652 0 
0.458714 0.752293 0 
1.03013 -0.16637 0 
0.741309 0.280715 0 
1.04481 -0.00317431 0 
0.939585 0.227147 0 
0.539451 -0.0922924 0 
-0.179474 -0.370635 0 
0.691614 0.120593 0 
0.609129 0.0319577 0 
0.0963949 -0.0972201 0 
-0.853266 0.020112 0 
0.750062 0.43371 0 
0.998034 -0.0842276 0 
0.508721 0.155293 0 
0.74341 0.797135 0 
0.371911 0.280874 0 
1.18502 0.542892 0 
1.1682 0.52605 0 
0.940799 0.584185 0 
1.37717 0.126253 0 
0.917988 0.546223 0 
0.293017 0.132482 0 
0.397715 -0.189951 0 
0.314138 0.593781 0 
0.207843 0.0989485 0 
0.772805 -0.0236783 0 
0.829195 -0.121598 0 
0.87104 -0.000882864 0 
0.695815 -0.364726 0 
0.813626 0.220412 0 
0.763918 0.0448111 0 
0.719168 0.000510316 0 
0.536184 0.315415 0 
0.888701 -0.253539 0 
1.03003 0.157236 0 
1.07171 0.314079 0 
1.18615 0.617115 0 
0.6252 0.19248 0 
0.704518 0.0899041 0 
0.749741 0.265269 0 
1.11714 0.0172329 0 
1.04436 -0.192922 0 
0.97857 -0.045675 0 
1.34096 0.134164 0 
1.08935 0.0457665 0 
1.10599 -0.291208 0 
0.795419 -0.114679 0 
0.734505 -0.219415 0 
0.869657 -0.125579 0 
1.09058 -0.386031 0 
1.31147 0.167634 0 
1.32124 -0.0182251 0 
0.924487 0.169325 0 
1.06958 0.0444483 0 
1.17188 -0.426038 0 
1.08223 0.134115 0 
1.1259 0.082773 0 
0.642079 0.0528377 0 
0.716707 -0.130665 0 
0.838152 0.454941 0 
1.13194 0.257725 0 
SCALARS mass double 1
LOOKUP_TABLE default
0.625
0.625
0.625
0.625
0.625
0.625
0.625
0.625
0.625
0.625
0.625
0.625
0.625
0.625
0.625
0.625
0.625
0.625
0.625
0.625
0.625
0.625
0.625
0.625
0.625
0.625
0.625
0.625
0.625
0.625
0.625
0.625
0.625
0.625
0.625
0.625
0.625
0.625
0.625
0.625
0.625
0.625
0.625
0.625
0.625
0.625
0.625
0.625
0.625
0.625
0.625
0.625
0.625
0.625
0.625
0.625
0.625
0.625
0.625
0.625
0.625
0.625
0.625
0.625
SCALARS volume double 1
LOOKUP_TABLE default
0.000629311
0.000617742
0.000623785
0.000605016
0.000622944
0.00063087
0.000619755
0.000627697
0.000596054
0.000575531
0.000616476
0.000601084
0.000549481
0.000505722
0.000591529
0.000569866
0.000649538
0.000626721
0.000646063
0.00060537
0.000642564
0.000639995
0.0006468
0.000604926
0.000647493
0.000601037
0.000623662
0.000613747
0.000630181
0.000576347
0.000621145
0.000629706
0.000654589
0.000592694
0.000623097
0.000611257
0.000657654
0.000630936
0.000615519
0.000605419
0.000619449
0.000583473
0.00064399
0.000619059
0.000607712
0.000626989
0.000631876
0.00061329
0.000657287
0.000634826
0.000622891
0.000628554
0.000595754
0.000621738
0.000649672
0.000623787
0.000614327
0.000643125
0.000632378
0.000622262
0.000601032
0.000621298
0.000631261
0.000627372
VECTORS momentum double
0.63806 0.121654 0 
0.436889 0.350153 0 
0.452154 0.288532 0 
0.286696 0.470183 0 
0.643832 -0.103981 0 
0.463318 0.175447 0 
0.653005 -0.00198394 0 
0.587241 0.141967 0 
0.337157 -0.0576827 0 
-0.112171 -0.231647 0 
0.432259 0.0753704 0 
0.380706 0.0199736 0 
0.0602468 -0.0607625 0 
-0.533291 0.01257 0 
0.468789 0.271069 0 
0.623771 -0.0526423 0 
0.31795 0.0970581 0 
0.464631 0.49821 0 
0.232445 0.175546 0 
0.740638 0.339307 0 
0.730124 0.328781 0 
0.587999 0.365116 0 
0.860729 0.0789079 0 
0.573742 0.341389 0 
0.183135 0.0828015 0 
0.248572 -0.11872 0 
0.196336 0.371113 0 
0.129902 0.0618428 0 
0.483003 -0.014799 0 
0.518247 -0.0759986 0 
0.5444 -0.00055179 0 
0.434885 -0.227954 0 
0.508516 0.137757 0 
0.477449 0.028007 0 
0.44948 0.000318948 0 
0.335115 0.197135 0 
0.555438 -0.158462 0 
0.643766 0.0982728 0 
0.669817 0.196299 0 
0.741342 0.385697 0 
0.39075 0.1203 0 
0.440324 0.05619 0 
0.468588 0.165793 0 
0.698211 0.0107705 0 
0.652722 -0.120576 0 
0.611607 -0.0285469 0 
0.838098 0.0838526 0 
0.680845 0.0286041 0 
0.691245 -0.182005 0 
0.497137 -0.0716743 0 
0.459066 -0.137134 0 
0.543535 -0.0784867 0 
0.68161 -0.241269 0 
0.819668 0.104771 0 
0.825774 -0.0113907 0 
0.577805 0.105828 0 
0.668486 0.0277802 0 
0.732425 -0.266273 0 
0.676394 0.0838221 0 
0.70369 0.0517331 0 
0.4013 0.0330236 0 
0.447942 -0.0816655 0 
0.523845 0.284338 0 
0.707461 0.161078 0 
VECTORS body_force double
0 -9.81 0 
0 -9.81 0 
0 -9.81 0 
0 -9.81 0 
0 -9.81 0 
0 -9.81 0 
0 -9.81 0 
0 -9.81 0 
0 -9.81 0 
0 -9.81 0 
0 -9.81 0 
0 -9.81 0 
0 -9.81 0 
0 -9.81 0 
0 -9.81 0 
0 -9.81 0 
0 -9.81 0 
0 -9.81 0 
0 -9.81 0 
0 -9.81 0 
0 -9.81 0 
0 -9.81 0 
0 -9.81 0 
0 -9.81 0 
0 -9.81 0 
0 -9.81 0 
0 -9.81 0 
0 -9.81 0 
0 -9.81 0 
0 -9.81 0 
0 -9.81 0 
0 -9.81 0 
0 -9.81 0 
0 -9.81 0 
0 -9.81 0 
0 -9.81 0 
0 -9.81 0 
0 -9.81 0 
0 -9.81 0 
0 -9.81 0 
0 -9.81 0 
0 -9.81 0 
0 -9.81 0 
0 -9.81 0 
0 -9.81 0 
0 -9.81 0 
0 -9.81 0 
0 -9.81 0 
0 -9.81 0 
0 -9.81 0 
0 -9.81 0 
0 -9.81 0 
0 -9.81 0 
0 -9.81 0 
0 -9.81 0 
0 -9.81 0 
0 -9.81 0 
0 -9.81 0 
0 -9.81 0 
0 -9.81 0 
0 -9.81 0 
0 -9.81 0 
0 -9.81 0 
0 -9.81 0 
TENSORS cauchy_stress double
130.706 56.6438 0
56.6438 1191.22 0
0 0 0

-1288.73 2769.73 0
2769.73 -957.562 0
0 0 0

-1132.61 -183.396 0
-183.396 758.251 0
0 0 0

-2599.07 991.166 0
991.166 -3650.32 0
0 0 0

-566.763 1615.62 0
1615.62 -66.8193 0
0 0 0

348.361 347.551 0
347.551 1449.4 0
0 0 0

2272.02 1371.05 0
1371.05 -3892.53 0
0 0 0

-982.937 910.104 0
910.104 1810.96 0
0 0 0

-3427.9 337.306 0
337.306 -5691.49 0
0 0 0

-15002.8 781.476 0
781.476 -854.669 0
0 0 0

-2566.35 3997.71 0
3997.71 -74.5858 0
0 0 0

-8297.35 4804.9 0
4804.9 794.015 0
0 0 0

-20652 1314.43 0
1314.43 -4112.81 0
0 0 0

-37690.3 -2474.87 0
-2474.87 -3033.46 0
0 0 0

-11979.7 785.748 0
785.748 1394.95 0
0 0 0

-15647 245.322 0
245.322 -2112.61 0
0 0 0

5175.16 1139.05 0
1139.05 2230.5 0
0 0 0

-2146.5 -34.5827 0
-34.5827 2675.4 0
0 0 0

6981.08 -291.871 0
-291.871 -607.069 0
0 0 0

-3319.14 -3407.73 0
-3407.73 -2817.7 0
0 0 0

-618.976 4168.88 0
4168.88 5948.63 0
0 0 0

3732.23 -280.658 0
-280.658 827.282 0
0 0 0

2787.16 451.258 0
451.258 3806.29 0
0 0 0

-1025.43 -1084.96 0
-1084.96 -5252.6 0
0 0 0

2209.49 -15.3267 0
-15.3267 4589.86 0
0 0 0

-2762.38 180.949 0
180.949 -4756.01 0
0 0 0

-4730.33 2057.44 0
2057.44 4318.21 0
0 0 0

-505.947 1521.86 0
1521.86 -2987.94 0
0 0 0

-1570.63 1190.78 0
1190.78 3158.24 0
0 0 0

-7436.97 -5305.49 0
-5305.49 -8148.14 0
0 0 0

-2689.95 -1227.66 0
-1227.66 1500.14 0
0 0 0

2321.14 -3667.03 0
-3667.03 -878.455 0
0 0 0

7105.37 1415.29 0
1415.29 1789.87 0
0 0 0

-7864.73 -3187.49 0
-3187.49 -2341.65 0
0 0 0

2511.67 1141.54 0
1141.54 -3098.01 0
0 0 0

-1756.99 51.9562 0
51.9562 -2518.7 0
0 0 0

4098.78 -605.315 0
-605.315 5694.8 0
0 0 0

2146.03 -3815.63 0
-3815.63 -328.203 0
0 0 0

-682.08 1247.39 0
1247.39 -2257.51 0
0 0 0

-4031.12 -350.497 0
-350.497 -2090.32 0
0 0 0

-1773.02 133.216 0
133.216 57.2482 0
0 0 0

-5619.01 1895.14 0
1895.14 -7602.83 0
0 0 0

916.728 -1470.62 0
-1470.62 4839.47 0
0 0 0

-234.992 938.058 0
938.058 -1601.86 0
0 0 0

-7817.46 -672.88 0
-672.88 2423.01 0
0 0 0

2338.93 -1321.12 0
-1321.12 -1727.93 0
0 0 0

-4348.67 -2647.82 0
-2647.82 6452.92 0
0 0 0

-4073.66 -3853.58 0
-3853.58 436.277 0
0 0 0

5890.05 -466.421 0
-466.421 3796.31 0
0 0 0

596.892 -414.936 0
-414.936 2403.11 0
0 0 0

-883.27 894.77 0
894.77 233.189 0
0 0 0

1779.72 1316.26 0
1316.26 -689.139 0
0 0 0

-5696.67 1616.3 0
1616.3 -3519.32 0
0 0 0

-1042.5 138.864 0
138.864 36.3158 0
0 0 0

1183.16 912.604 0
912.604 6262.23 0
0 0 0

683.929 1331.88 0
1331.88 -1057.49 0
0 0 0

-3510.17 233.365 0
233.365 197.757 0
0 0 0

1612.41 2625.68 0
2625.68 3885.05 0
0 0 0

-1136.55 -1376.63 0
-1376.63 3393.53 0
0 0 0

164.096 361.679 0
361.679 -1008.41 0
0 0 0

-6195.83 -3488.18 0
-3488.18 -1324.11 0
0 0 0

-1552.61 -547.275 0
-547.275 410.003 0
0 0 0

1822.23 566.172 0
566.172 94.74 0
0 0 0

-15.4145 446.65 0
446.65 743.881 0
0 0 0

TENSORS velocity_gradient double
-2.22875 -0.650239 0
1.05404 1.52071 0
0 0 0

-1.0297 0.316405 0
2.95224 -2.01832 0
0 0 0

-2.61256 2.26101 0
-1.40433 -0.157575 0
0 0 0

-0.632823 1.78824 0
0.412464 -0.341449 0
0 0 0

0.358851 -1.83869 0
4.72944 -2.78179 0
0 0 0

2.48251 -6.03935 0
5.25443 -2.65843 0
0 0 0

1.14372 -2.93725 0
5.14631 -2.4079 0
0 0 0

3.38066 -3.73225 0
5.32696 -2.47211 0
0 0 0

6.65039 -6.28155 0
5.95058 -1.94091 0
0 0 0

8.09452 -2.83236 0
3.74541 0.579041 0
0 0 0

5.05779 -3.45392 0
4.8828 -2.43522 0
0 0 0

4.96191 -3.30634 0
2.62712 -1.54374 0
0 0 0

6.82066 -2.41246 0
2.22799 0.775874 0
0 0 0

8.0144 2.93147 0
0.768052 -0.245833 0
0 0 0

5.08013 2.69373 0
0.317199 -1.54125 0
0 0 0

6.46831 4.34978 0
-0.923491 -1.31807 0
0 0 0

-1.91808 4.22848 0
-1.43261 -0.237666 0
0 0 0

-0.0442677 3.54184 0
-1.50888 -0.209714 0
0 0 0

-1.1679 5.54944 0
-4.61631 -0.358211 0
0 0 0

-0.0988521 3.20823 0
-2.50515 -0.723153 0
0 0 0

1.52057 -1.39973 0
-1.16017 -2.02989 0
0 0 0

2.93753 -1.94095 0
-0.554106 -2.22301 0
0 0 0

1.93419 0.14704 0
-1.01047 -1.47009 0
0 0 0

3.28137 -0.746697 0
-0.492132 -2.05649 0
0 0 0

4.75583 -3.3882 0
2.71511 -4.26852 0
0 0 0

4.90017 -3.44025 0
1.65778 -3.64604 0
0 0 0

4.4482 -2.43766 0
0.368919 -3.84205 0
0 0 0

5.50897 -2.78549 0
1.28848 -4.14358 0
0 0 0

5.50423 5.88855 0
-0.267643 -2.79662 0
0 0 0

6.87918 5.42125 0
-1.59821 -2.34442 0
0 0 0

4.0481 5.91639 0
2.08546 -3.40205 0
0 0 0

4.93955 6.33228 0
0.0159159 -3.38923 0
0 0 0

-1.21357 5.37336 0
-4.67792 -0.595796 0
0 0 0

-0.916018 2.61242 0
-4.58691 -0.376254 0
0 0 0

0.909298 4.62947 0
-5.23329 -0.581517 0
0 0 0

-0.245289 3.99938 0
-4.18655 0.714377 0
0 0 0

0.932163 1.70188 0
-3.47671 -0.670685 0
0 0 0

2.78377 -0.661503 0
-2.03516 -2.34879 0
0 0 0

1.54559 3.5301 0
-3.1069 0.431468 0
0 0 0

2.90801 -0.0548689 0
-2.1793 -1.81001 0
0 0 0

4.58888 -1.37756 0
0.230093 -2.92469 0
0 0 0

5.33926 1.28641 0
1.58271 -2.78755 0
0 0 0

3.92013 -0.374567 0
-1.33143 -2.07783 0
0 0 0

3.77647 1.03304 0
-0.0455931 -1.32964 0
0 0 0

3.27969 3.74369 0
2.31172 -2.7623 0
0 0 0

1.1262 3.88809 0
2.85327 -0.911779 0
0 0 0

1.89998 1.71708 0
2.08552 -1.89666 0
0 0 0

0.617046 2.41551 0
2.88853 0.377202 0
0 0 0

0.526985 3.99611 0
-5.0907 1.03337 0
0 0 0

0.302363 4.41322 0
-4.86382 1.18115 0
0 0 0

-1.38609 2.89048 0
-5.15278 0.668082 0
0 0 0

0.242368 4.2618 0
-4.76863 1.4214 0
0 0 0

0.11943 3.17945 0
-4.4732 0.684837 0
0 0 0

1.40605 0.696263 0
-2.37617 -0.843298 0
0 0 0

-0.0061221 0.112908 0
-4.06546 1.87571 0
0 0 0

-0.51898 0.347762 0
-2.17165 1.00847 0
0 0 0

4.29069 0.556844 0
-1.00898 -1.24294 0
0 0 0

3.04346 -0.928317 0
0.661553 0.562506 0
0 0 0

-0.882314 -1.40316 0
-0.593394 1.30723 0
0 0 0

-0.530911 -2.03373 0
-0.779965 1.65819 0
0 0 0

1.0198 -0.128908 0
2.6138 -0.208694 0
0 0 0

-0.150627 1.61165 0
3.41808 0.494266 0
0 0 0

-0.143934 -0.426804 0
1.28944 1.17693 0
0 0 0

-0.661641 0.627713 0
3.40449 0.848812 0
0 0 0

SCALARS active double 1
LOOKUP_TABLE default
1
1
1
1
1
1
1
1
1
1
1
1
1
1
1
1
1
1
1
1
1
1
1
1
1
1
1
1
1
1
1
1
1
1
1
1
1
1
1
1
1
1
1
1
1
1
1
1
1
1
1
1
1
1
1
1
1
1
1
1
1
1
1
1
SCALARS extent double 1
LOOKUP_TABLE default
0.0125
0.0125
0.0125
0.0125
0.0125
0.0125
0.0125
0.0125
0.0125
0.0125
0.0125
0.0125
0.0125
0.0125
0.0125
0.0125
0.0125
0.0125
0.0125
0.0125
0.0125
0.0125
0.0125
0.0125
0.0125
0.0125
0.0125
0.0125
0.0125
0.0125
0.0125
0.0125
0.0125
0.0125
0.0125
0.0125
0.0125
0.0125
0.0125
0.0125
0.0125
0.0125
0.0125
0.0125
0.0125
0.0125
0.0125
0.0125
0.0125
0.0125
0.0125
0.0125
0.0125
0.0125
0.0125
0.0125
0.0125
0.0125
0.0125
0.0125
0.0125
0.0125
0.0125
0.0125
SCALARS pressure double 1
LOOKUP_TABLE default
-660.964
1123.14
187.179
3124.7
316.791
-898.883
810.254
-414.012
4559.69
7928.74
1320.47
3751.67
12382.4
20361.9
5292.35
8879.81
-3702.83
-264.449
-3187
3068.42
-2664.83
-2279.76
-3296.73
3139.01
-3399.68
3759.2
206.06
1746.95
-793.806
7792.56
594.907
-721.345
-4447.62
5103.19
293.171
2137.84
-4896.79
-908.915
1469.8
3060.72
857.888
6610.92
-2878.1
918.426
2697.22
-305.498
-1052.12
1818.69
-4843.18
-1500
325.041
-545.293
4607.99
503.091
-3722.69
186.779
1656.2
-2748.73
-1128.49
422.159
3759.97
571.304
-958.483
-364.233
SCALARS density double 1
LOOKUP_TABLE default
993.15
1011.75
1001.95
1033.03
1003.3
990.695
1008.46
995.704
1048.56
1085.95
1013.83
1039.79
1137.44
1235.86
1056.58
1096.75
962.223
997.254
967.398
1032.43
972.666
976.569
966.295
1033.18
965.261
1039.87
1002.15
1018.33
991.778
1084.42
1006.21
992.526
954.798
1054.51
1003.05
1022.48
950.348
990.592
1015.4
1032.34
1008.96
1071.17
970.511
1009.6
1028.45
996.828
989.118
1019.09
950.878
984.521
1003.39
994.345
1049.09
1005.25
962.024
1001.94
1017.37
971.818
988.332
1004.4
1039.88
1005.96
990.081
996.219
