# vtk DataFile Version 3.0
Frame: 4, Time: 0.084
ASCII
DATASET UNSTRUCTURED_GRID
POINTS 64 double
0.5125 0.576644 0 
0.5125 0.601644 0 
0.5375 0.576644 0 
0.5375 0.601644 0 
0.5125 0.626644 0 
0.5125 0.651644 0 
0.5375 0.626644 0 
0.5375 0.651644 0 
0.5125 0.676644 0 
0.5125 0.701644 0 
0.5375 0.676644 0 
0.5375 0.701644 0 
0.5125 0.726644 0 
0.5125 0.751644 0 
0.5375 0.726644 0 
0.5375 0.751644 0 
0.5625 0.576644 0 
0.5625 0.601644 0 
0.5875 0.576644 0 
0.5875 0.601644 0 
0.5625 0.626644 0 
0.5625 0.651644 0 
0.5875 0.626644 0 
0.5875 0.651644 0 
0.5625 0.676644 0 
0.5625 0.701644 0 
0.5875 0.676644 0 
0.5875 0.701644 0 
0.5625 0.726644 0 
0.5625 0.751644 0 
0.5875 0.726644 0 
0.5875 0.751644 0 
0.6125 0.576644 0 
0.6125 0.601644 0 
0.6375 0.576644 0 
0.6375 0.601644 0 
0.6125 0.626644 0 
0.6125 0.651644 0 
0.6375 0.626644 0 
0.6375 0.651644 0 
0.6125 0.676644 0 
0.6125 0.701644 0 
0.6375 0.676644 0 
0.6375 0.701644 0 
0.6125 0.726644 0 
0.6125 0.751644 0 
0.6375 0.726644 0 
0.6375 0.751644 0 
0.6625 0.576644 0 
0.6625 0.601644 0 
0.6875 0.576644 0 
0.6875 0.601644 0 
0.6625 0.626644 0 
0.6625 0.651644 0 
0.6875 0.626644 0 
0.6875 0.651644 0 
0.6625 0.676644 0 
0.6625 0.701644 0 
0.6875 0.676644 0 
0.6875 0.701644 0 
0.6625 0.726644 0 
0.6625 0.751644 0 
0.6875 0.726644 0 
0.6875 0.751644 0 
CELLS 64 128
1 0
1 1
1 2
1 3
1 4
1 5
1 6
1 7
1 8
1 9
1 10
1 11
1 12
1 13
1 14
1 15
1 16
1 17
1 18
1 19
1 20
1 21
1 22
1 23
1 24
1 25
1 26
1 27
1 28
1 29
1 30
1 31
1 32
1 33
1 34
1 35
1 36
1 37
1 38
1 39
1 40
1 41
1 42
1 43
1 44
1 45
1 46
1 47
1 48
1 49
1 50
1 51
1 52
1 53
1 54
1 55
1 56
1 57
1 58
1 59
1 60
1 61
1 62
1 63
CELL_TYPES 64
1
1
1
1
1
1
1
1
1
1
1
1
1
1
1
1
1
1
1
1
1
1
1
1
1
1
1
1
1
1
1
1
1
1
1
1
1
1
1
1
1
1
1
1
1
1
1
1
1
1
1
1
1
1
1
1
1
1
1
1
1
1
1
1
POINT_DATA 64
VECTORS displacement double
-2.65934e-17 -0.0358555 0 
-3.49688e-18 -0.0358555 0 
-1.89764e-17 -0.0358555 0 
-1.75037e-18 -0.0358555 0 
2.22058e-17 -0.0358555 0 
8.85731e-18 -0.0358555 0 
1.27512e-17 -0.0358555 0 
7.13554e-18 -0.0358555 0 
-4.97242e-18 -0.0358555 0 
1.24434e-17 -0.0358555 0 
3.84882e-18 -0.0358555 0 
1.55135e-17 -0.0358555 0 
3.29938e-17 -0.0358555 0 
3.4137e-17 -0.0358555 0 
2.6531e-17 -0.0358555 0 
3.02731e-17 -0.0358555 0 
-1.27414e-17 -0.0358555 0 
-9.06256e-19 -0.0358555 0 
-7.88845e-18 -0.0358555 0 
-9.6454e-19 -0.0358555 0 
7.15547e-18 -0.0358555 0 
6.91292e-18 -0.0358555 0 
5.41873e-18 -0.0358555 0 
8.18943e-18 -0.0358555 0 
9.29272e-18 -0.0358555 0 
1.67602e-17 -0.0358555 0 
1.13593e-17 -0.0358555 0 
1.61836e-17 -0.0358555 0 
2.23903e-17 -0.0358555 0 
2.75444e-17 -0.0358555 0 
2.05717e-17 -0.0358555 0 
2.59508e-17 -0.0358555 0 
-3.62032e-18 -0.0358555 0 
-1.29206e-18 -0.0358556 0 
6.30248e-20 -0.0358556 0 
-1.88881e-18 -0.0358556 0 
3.38507e-18 -0.0358556 0 
9.30081e-18 -0.0358555 0 
1.0545e-18 -0.0358556 0 
1.02471e-17 -0.0358555 0 
1.36436e-17 -0.0358556 0 
1.60246e-17 -0.0358556 0 
1.61456e-17 -0.0358556 0 
1.62834e-17 -0.0358556 0 
1.91251e-17 -0.0358556 0 
2.40475e-17 -0.0358555 0 
1.80506e-17 -0.0358556 0 
2.18344e-17 -0.0358555 0 
5.70062e-18 -0.0358555 0 
-5.46321e-19 -0.0358555 0 
1.32925e-17 -0.0358555 0 
2.73541e-18 -0.0358555 0 
-4.07137e-18 -0.0358555 0 
1.03123e-17 -0.0358555 0 
-1.19926e-17 -0.0358555 0 
9.49664e-18 -0.0358555 0 
2.21334e-17 -0.0358555 0 
1.82575e-17 -0.0358555 0 
3.1607e-17 -0.0358555 0 
2.19469e-17 -0.0358555 0 
1.44515e-17 -0.0358555 0 
1.84374e-17 -0.0358555 0 
8.3278e-18 -0.0358555 0 
1.38564e-17 -0.0358555 0 
VECTORS velocity double
1.00326e-15 -0.83385 0 
-9.62105e-16 -0.83385 0 
6.23508e-17 -0.83385 0 
6.45459e-16 -0.83385 0 
1.96464e-15 -0.83385 0 
-7.12327e-16 -0.83385 0 
1.69493e-16 -0.83385 0 
-9.8943e-16 -0.83385 0 
-5.2016e-17 -0.83385 0 
3.85778e-15 -0.83385 0 
1.06281e-15 -0.83385 0 
2.73892e-15 -0.83385 0 
4.16538e-15 -0.83385 0 
5.23038e-15 -0.83385 0 
2.06002e-15 -0.83385 0 
4.09465e-15 -0.83385 0 
-2.40572e-16 -0.83385 0 
1.14846e-15 -0.83385 0 
9.44886e-17 -0.83385 0 
5.46905e-16 -0.83385 0 
-5.29825e-16 -0.83385 0 
-9.03814e-16 -0.83385 0 
-1.33313e-16 -0.83385 0 
-4.55478e-16 -0.83385 0 
1.26066e-15 -0.83385 0 
1.75679e-15 -0.83385 0 
5.41554e-16 -0.83385 0 
9.11381e-16 -0.83385 0 
9.41052e-16 -0.83385 0 
3.16682e-15 -0.83385 0 
8.08477e-16 -0.83385 0 
2.4469e-15 -0.83385 0 
-3.03753e-17 -0.83385 0 
-3.0126e-16 -0.83385 0 
-6.15163e-16 -0.83385 0 
-1.39603e-15 -0.83385 0 
8.78036e-17 -0.83385 0 
-3.87397e-18 -0.83385 0 
1.33525e-16 -0.83385 0 
4.50997e-16 -0.83385 0 
-1.20314e-16 -0.83385 0 
1.62744e-16 -0.83385 0 
-7.2494e-16 -0.83385 0 
-4.89119e-16 -0.83385 0 
8.41202e-16 -0.83385 0 
1.58403e-15 -0.83385 0 
1.03923e-15 -0.83385 0 
5.78223e-16 -0.83385 0 
-1.75883e-15 -0.83385 0 
-9.31301e-16 -0.83385 0 
-3.46137e-15 -0.83385 0 
1.09294e-15 -0.83385 0 
-3.85008e-16 -0.83385 0 
9.14462e-16 -0.83385 0 
-1.46779e-15 -0.83385 0 
1.38652e-15 -0.83385 0 
-1.20567e-16 -0.83385 0 
-9.93891e-16 -0.83385 0 
1.69281e-15 -0.83385 0 
-1.35157e-15 -0.83385 0 
3.62871e-16 -0.83385 0 
-4.13941e-16 -0.83385 0 
-1.18787e-15 -0.83385 0 
-1.39246e-15 -0.83385 0 
SCALARS mass double 1
LOOKUP_TABLE default
0.625
0.625
0.625
0.625
0.625
0.625
0.625
0.625
0.625
0.625
0.625
0.625
0.625
0.625
0.625
0.625
0.625
0.625
0.625
0.625
0.625
0.625
0.625
0.625
0.625
0.625
0.625
0.625
0.625
0.625
0.625
0.625
0.625
0.625
0.625
0.625
0.625
0.625
0.625
0.625
0.625
0.625
0.625
0.625
0.625
0.625
0.625
0.625
0.625
0.625
0.625
0.625
0.625
0.625
0.625
0.625
0.625
0.625
0.625
0.625
0.625
0.625
0.625
0.625
SCALARS volume double 1
LOOKUP_TABLE default
0.000625
0.000625
0.000625
0.000625
0.000625
0.000625
0.000625
0.000625
0.000625
0.000625
0.000625
0.000625
0.000625
0.000625
0.000625
0.000625
0.000625
0.000625
0.000625
0.000625
0.000625
0.000625
0.000625
0.000625
0.000625
0.000625
0.000625
0.000625
0.000625
0.000625
0.000625
0.000625
0.000625
0.000625
0.000625
0.000625
0.000625
0.000625
0.000625
0.000625
0.000625
0.000625
0.000625
0.000625
0.000625
0.000625
0.000625
0.000625
0.000625
0.000625
0.000625
0.000625
0.000625
0.000625
0.000625
0.000625
0.000625
0.000625
0.000625
0.000625
0.000625
0.000625
0.000625
0.000625
VECTORS momentum double
6.27035e-16 -0.521156 0 
-6.01316e-16 -0.521156 0 
3.89693e-17 -0.521156 0 
4.03412e-16 -0.521156 0 
1.2279e-15 -0.521156 0 
-4.45205e-16 -0.521156 0 
1.05933e-16 -0.521156 0 
-6.18394e-16 -0.521156 0 
-3.251e-17 -0.521156 0 
2.41111e-15 -0.521156 0 
6.64254e-16 -0.521156 0 
1.71183e-15 -0.521156 0 
2.60336e-15 -0.521156 0 
3.26899e-15 -0.521156 0 
1.28751e-15 -0.521156 0 
2.55916e-15 -0.521156 0 
-1.50357e-16 -0.521156 0 
7.17789e-16 -0.521156 0 
5.90554e-17 -0.521156 0 
3.41816e-16 -0.521156 0 
-3.31141e-16 -0.521156 0 
-5.64883e-16 -0.521156 0 
-8.33206e-17 -0.521156 0 
-2.84674e-16 -0.521156 0 
7.87914e-16 -0.521156 0 
1.09799e-15 -0.521156 0 
3.38471e-16 -0.521156 0 
5.69613e-16 -0.521156 0 
5.88158e-16 -0.521156 0 
1.97926e-15 -0.521156 0 
5.05298e-16 -0.521156 0 
1.52931e-15 -0.521156 0 
-1.89846e-17 -0.521156 0 
-1.88288e-16 -0.521156 0 
-3.84477e-16 -0.521156 0 
-8.72521e-16 -0.521156 0 
5.48772e-17 -0.521156 0 
-2.42123e-18 -0.521156 0 
8.34529e-17 -0.521156 0 
2.81873e-16 -0.521156 0 
-7.51962e-17 -0.521156 0 
1.01715e-16 -0.521156 0 
-4.53088e-16 -0.521156 0 
-3.05699e-16 -0.521156 0 
5.25751e-16 -0.521156 0 
9.90021e-16 -0.521156 0 
6.49517e-16 -0.521156 0 
3.6139e-16 -0.521156 0 
-1.09927e-15 -0.521156 0 
-5.82063e-16 -0.521156 0 
-2.16335e-15 -0.521156 0 
6.83086e-16 -0.521156 0 
-2.4063e-16 -0.521156 0 
5.71539e-16 -0.521156 0 
-9.17371e-16 -0.521156 0 
8.66574e-16 -0.521156 0 
-7.53543e-17 -0.521156 0 
-6.21182e-16 -0.521156 0 
1.058e-15 -0.521156 0 
-8.44732e-16 -0.521156 0 
2.26794e-16 -0.521156 0 
-2.58713e-16 -0.521156 0 
-7.42417e-16 -0.521156 0 
-8.70288e-16 -0.521156 0 
VECTORS body_force double
0 -9.81 0 
0 -9.81 0 
0 -9.81 0 
0 -9.81 0 
0 -9.81 0 
0 -9.81 0 
0 -9.81 0 
0 -9.81 0 
0 -9.81 0 
0 -9.81 0 
0 -9.81 0 
0 -9.81 0 
0 -9.81 0 
0 -9.81 0 
0 -9.81 0 
0 -9.81 0 
0 -9.81 0 
0 -9.81 0 
0 -9.81 0 
0 -9.81 0 
0 -9.81 0 
0 -9.81 0 
0 -9.81 0 
0 -9.81 0 
0 -9.81 0 
0 -9.81 0 
0 -9.81 0 
0 -9.81 0 
0 -9.81 0 
0 -9.81 0 
0 -9.81 0 
0 -9.81 0 
0 -9.81 0 
0 -9.81 0 
0 -9.81 0 
0 -9.81 0 
0 -9.81 0 
0 -9.81 0 
0 -9.81 0 
0 -9.81 0 
0 -9.81 0 
0 -9.81 0 
0 -9.81 0 
0 -9.81 0 
0 -9.81 0 
0 -9.81 0 
0 -9.81 0 
0 -9.81 0 
0 -9.81 0 
0 -9.81 0 
0 -9.81 0 
0 -9.81 0 
0 -9.81 0 
0 -9.81 0 
0 -9.81 0 
0 -9.81 0 
0 -9.81 0 
0 -9.81 0 
0 -9.81 0 
0 -9.81 0 
0 -9.81 0 
0 -9.81 0 
0 -9.81 0 
0 -9.81 0 
TENSORS cauchy_stress double
4.34299e-11 -1.44724e-11 0
-1.44724e-11 2.32131e-11 0
0 0 0

-1.16189e-10 2.50808e-11 0
2.50808e-11 -2.89021e-10 0
0 0 0

3.24663e-11 -1.51944e-12 0
-1.51944e-12 -2.36861e-12 0
0 0 0

-1.03515e-10 6.14339e-12 0
6.14339e-12 -2.59448e-10 0
0 0 0

6.84795e-12 1.16328e-11 0
1.16328e-11 1.12949e-10 0
0 0 0

9.75602e-11 -3.40983e-11 0
-3.40983e-11 2.453e-10 0
0 0 0

1.58472e-11 2.42548e-12 0
2.42548e-12 1.33947e-10 0
0 0 0

9.72527e-11 -1.59514e-11 0
-1.59514e-11 2.44582e-10 0
0 0 0

-1.4451e-11 -1.35612e-11 0
-1.35612e-11 -1.24193e-10 0
0 0 0

-7.03113e-11 2.72436e-11 0
2.72436e-11 -1.95547e-10 0
0 0 0

-1.00623e-11 -3.2272e-12 0
-3.2272e-12 -1.13953e-10 0
0 0 0

-7.31952e-11 9.8438e-12 0
9.8438e-12 -2.02277e-10 0
0 0 0

2.5123e-11 1.19003e-11 0
1.19003e-11 1.24906e-10 0
0 0 0

1.09531e-12 -7.5133e-12 0
-7.5133e-12 4.21851e-11 0
0 0 0

2.71659e-11 3.77871e-12 0
3.77871e-12 1.29672e-10 0
0 0 0

5.01045e-12 1.4523e-12 0
1.4523e-12 5.13205e-11 0
0 0 0

1.77988e-11 5.31936e-12 0
5.31936e-12 -8.24293e-12 0
0 0 0

-1.10894e-10 4.0705e-12 0
4.0705e-12 -2.58154e-10 0
0 0 0

3.43689e-11 -1.08781e-12 0
-1.08781e-12 3.04206e-11 0
0 0 0

-1.15709e-10 8.33831e-13 0
8.33831e-13 -2.69389e-10 0
0 0 0

5.68578e-11 -3.9471e-12 0
-3.9471e-12 1.50481e-10 0
0 0 0

1.09376e-10 -1.16322e-11 0
-1.16322e-11 2.42119e-10 0
0 0 0

5.92993e-11 -2.94346e-12 0
-2.94346e-12 1.56178e-10 0
0 0 0

1.1816e-10 -1.05776e-11 0
-1.05776e-11 2.62613e-10 0
0 0 0

-4.89121e-11 -4.43864e-12 0
-4.43864e-12 -1.35324e-10 0
0 0 0

-9.23141e-11 -3.23693e-13 0
-3.23693e-13 -2.09485e-10 0
0 0 0

-4.29445e-11 -4.77277e-12 0
-4.77277e-12 -1.21399e-10 0
0 0 0

-8.84438e-11 -3.7286e-12 0
-3.7286e-12 -2.00455e-10 0
0 0 0

5.25483e-11 -5.56332e-12 0
-5.56332e-12 1.41265e-10 0
0 0 0

1.44776e-11 -1.60326e-12 0
-1.60326e-12 5.01256e-11 0
0 0 0

4.90787e-11 -3.15913e-12 0
-3.15913e-12 1.33169e-10 0
0 0 0

1.4974e-11 -3.50781e-12 0
-3.50781e-12 5.12839e-11 0
0 0 0

3.85308e-11 -6.35755e-12 0
-6.35755e-12 5.21272e-11 0
0 0 0

-1.14669e-10 -3.50309e-12 0
-3.50309e-12 -2.6144e-10 0
0 0 0

2.09335e-11 -1.28571e-11 0
-1.28571e-11 1.10669e-11 0
0 0 0

-1.10285e-10 -6.37929e-12 0
-6.37929e-12 -2.5121e-10 0
0 0 0

5.24757e-11 2.40039e-12 0
2.40039e-12 1.46347e-10 0
0 0 0

1.18416e-10 1.50344e-12 0
1.50344e-12 2.666e-10 0
0 0 0

5.74453e-11 3.63316e-12 0
3.63316e-12 1.57942e-10 0
0 0 0

1.1225e-10 5.53423e-12 0
5.53423e-12 2.52211e-10 0
0 0 0

-3.8753e-11 -2.92226e-12 0
-2.92226e-12 -1.16085e-10 0
0 0 0

-9.11833e-11 -4.58474e-12 0
-4.58474e-12 -2.15415e-10 0
0 0 0

-5.02042e-11 -4.93716e-13 0
-4.93716e-13 -1.42805e-10 0
0 0 0

-8.78943e-11 -6.14698e-12 0
-6.14698e-12 -2.07741e-10 0
0 0 0

5.19081e-11 -2.90531e-12 0
-2.90531e-12 1.32139e-10 0
0 0 0

8.20367e-12 -2.51821e-12 0
-2.51821e-12 4.18399e-11 0
0 0 0

5.228e-11 -2.07115e-12 0
-2.07115e-12 1.33007e-10 0
0 0 0

1.16769e-11 -2.64085e-12 0
-2.64085e-12 4.9944e-11 0
0 0 0

4.00689e-11 9.20663e-12 0
9.20663e-12 1.56291e-11 0
0 0 0

-9.67232e-11 1.47855e-12 0
1.47855e-12 -2.59346e-10 0
0 0 0

4.16486e-11 1.46507e-11 0
1.46507e-11 1.9315e-11 0
0 0 0

-1.12446e-10 -1.97343e-11 0
-1.97343e-11 -2.96033e-10 0
0 0 0

2.22502e-11 7.50924e-13 0
7.50924e-13 1.3316e-10 0
0 0 0

9.52027e-11 1.79736e-11 0
1.79736e-11 2.30506e-10 0
0 0 0

1.55156e-11 -6.95594e-12 0
-6.95594e-12 1.17446e-10 0
0 0 0

9.86054e-11 3.54374e-11 0
3.54374e-11 2.38446e-10 0
0 0 0

-8.45033e-12 6.32848e-12 0
6.32848e-12 -1.16883e-10 0
0 0 0

-7.01338e-11 -1.09773e-11 0
-1.09773e-11 -2.01486e-10 0
0 0 0

-9.64248e-12 1.39257e-11 0
1.39257e-11 -1.19664e-10 0
0 0 0

-6.85309e-11 -2.66305e-11 0
-2.66305e-11 -1.97746e-10 0
0 0 0

2.50106e-11 -3.84728e-12 0
-3.84728e-12 1.21165e-10 0
0 0 0

2.23422e-13 3.04923e-14 0
3.04923e-14 4.75059e-11 0
0 0 0

2.38669e-11 -9.8654e-12 0
-9.8654e-12 1.18497e-10 0
0 0 0

-3.27698e-12 7.02985e-12 0
7.02985e-12 3.93383e-11 0
0 0 0

TENSORS velocity_gradient double
4.48676e-16 -2.30677e-14 0
1.77636e-15 5.86198e-14 0
0 0 0

1.4445e-14 5.06831e-15 0
2.66454e-15 -1.89182e-13 0
0 0 0

4.48676e-16 -2.00833e-15 0
3.55271e-15 6.03961e-14 0
0 0 0

1.4445e-14 -2.12435e-15 0
6.21725e-15 -1.57208e-13 0
0 0 0

-1.9039e-15 1.72265e-14 0
2.13163e-14 -4.9738e-14 0
0 0 0

-1.71282e-14 2.50864e-14 0
1.77636e-14 2.0961e-13 0
0 0 0

-1.9039e-15 -2.17448e-15 0
7.10543e-15 -6.39488e-14 0
0 0 0

-1.71282e-14 2.23923e-14 0
2.57572e-14 1.89182e-13 0
0 0 0

-1.44077e-14 2.84829e-14 0
1.59872e-14 1.08358e-13 0
0 0 0

-1.21023e-14 3.62654e-14 0
4.44089e-15 -1.37668e-13 0
0 0 0

-1.44077e-14 3.30082e-14 0
7.10543e-15 9.23706e-14 0
0 0 0

-1.21023e-14 3.19115e-14 0
-1.77636e-15 -1.36779e-13 0
0 0 0

-1.93338e-14 3.96284e-14 0
-3.55271e-15 -3.19744e-14 0
0 0 0

-2.7014e-14 3.12446e-14 0
-1.42109e-14 4.9738e-14 0
0 0 0

-1.93338e-14 3.14376e-14 0
3.55271e-15 -3.19744e-14 0
0 0 0

-2.7014e-14 2.50962e-14 0
-1.33227e-14 2.93099e-14 0
0 0 0

-5.08526e-15 5.78289e-15 0
2.13163e-14 3.55271e-14 0
0 0 0

-8.70354e-15 -4.7419e-15 0
9.32587e-15 -1.61204e-13 0
0 0 0

-5.08526e-15 3.05989e-16 0
7.10543e-15 4.9738e-14 0
0 0 0

-8.70354e-15 -2.78434e-15 0
-8.88178e-16 -1.71418e-13 0
0 0 0

-4.33653e-15 -9.2899e-15 0
1.77636e-15 -6.21725e-14 0
0 0 0

-2.03617e-15 1.78907e-14 0
-1.02141e-14 2.02949e-13 0
0 0 0

-4.33653e-15 -4.11974e-15 0
7.10543e-15 -5.68434e-14 0
0 0 0

-2.03617e-15 1.15817e-14 0
-4.44089e-15 1.94511e-13 0
0 0 0

-1.20655e-14 2.96361e-14 0
3.55271e-15 8.88178e-14 0
0 0 0

-2.21231e-14 2.65238e-14 0
-7.54952e-15 -1.49658e-13 0
0 0 0

-1.20655e-14 1.83666e-14 0
0 9.9476e-14 0
0 0 0

-2.21231e-14 2.01022e-14 0
-8.88178e-15 -1.58096e-13 0
0 0 0

-2.69734e-14 2.51789e-14 0
-5.32907e-15 -5.50671e-14 0
0 0 0

-3.07781e-14 2.09024e-14 0
-1.55431e-14 3.41949e-14 0
0 0 0

-2.69734e-14 2.08522e-14 0
-1.06581e-14 -6.03961e-14 0
0 0 0

-3.07781e-14 1.86634e-14 0
-1.5099e-14 2.75335e-14 0
0 0 0

-2.14805e-14 -8.56228e-17 0
-5.32907e-15 5.15143e-14 0
0 0 0

-1.56017e-14 2.91142e-15 0
-4.44089e-15 -1.82077e-13 0
0 0 0

-2.14805e-14 4.60806e-15 0
-1.06581e-14 6.03961e-14 0
0 0 0

-1.56017e-14 1.23454e-14 0
-8.88178e-15 -1.58096e-13 0
0 0 0

-4.63148e-15 4.20652e-15 0
-5.32907e-15 -5.50671e-14 0
0 0 0

3.06736e-15 6.60128e-15 0
4.44089e-16 1.92291e-13 0
0 0 0

-4.63148e-15 1.56889e-14 0
3.55271e-15 -4.61853e-14 0
0 0 0

3.06736e-15 2.94959e-15 0
-8.88178e-16 1.90958e-13 0
0 0 0

-5.48915e-15 7.63612e-15 0
0 8.52651e-14 0
0 0 0

-1.50966e-14 1.29637e-14 0
2.22045e-15 -1.54099e-13 0
0 0 0

-5.48915e-15 -2.55534e-15 0
-7.10543e-15 7.81597e-14 0
0 0 0

-1.50966e-14 5.10811e-15 0
-7.99361e-15 -1.57208e-13 0
0 0 0

-2.21952e-14 1.52658e-14 0
5.32907e-15 -5.15143e-14 0
0 0 0

-2.94437e-14 1.3316e-14 0
2.22045e-15 3.77476e-14 0
0 0 0

-2.21952e-14 8.41967e-15 0
3.55271e-15 -3.90799e-14 0
0 0 0

-2.94437e-14 4.86027e-15 0
-3.55271e-15 1.77636e-14 0
0 0 0

-1.37382e-14 2.30108e-14 0
-3.19744e-14 4.61853e-14 0
0 0 0

1.06744e-14 1.77201e-14 0
-1.19904e-14 -1.61204e-13 0
0 0 0

-1.37382e-14 5.51225e-14 0
-3.90799e-14 6.03961e-14 0
0 0 0

1.06744e-14 1.90355e-14 0
-3.55271e-14 -1.63425e-13 0
0 0 0

2.00902e-15 1.54339e-14 0
-8.88178e-15 -5.15143e-14 0
0 0 0

-6.83262e-15 1.42899e-15 0
-1.33227e-14 1.92735e-13 0
0 0 0

2.00902e-15 3.44153e-15 0
-1.06581e-14 -3.90799e-14 0
0 0 0

-6.83262e-15 2.03947e-15 0
-9.76996e-15 1.96287e-13 0
0 0 0

-2.13766e-15 -4.62284e-15 0
5.32907e-15 9.05942e-14 0
0 0 0

8.43917e-16 -1.9412e-15 0
9.32587e-15 -1.46994e-13 0
0 0 0

-2.13766e-15 1.43361e-15 0
0 9.9476e-14 0
0 0 0

8.43917e-16 -8.18427e-15 0
1.15463e-14 -1.44773e-13 0
0 0 0

-9.38533e-15 -7.82405e-16 0
8.88178e-15 -4.08562e-14 0
0 0 0

-2.06254e-14 -4.51086e-15 0
2.22045e-15 3.77476e-14 0
0 0 0

-9.38533e-15 -1.23404e-14 0
7.10543e-15 -3.55271e-14 0
0 0 0

-2.06254e-14 -1.47974e-14 0
2.66454e-15 3.10862e-14 0
0 0 0

SCALARS active double 1
LOOKUP_TABLE default
1
1
1
1
1
1
1
1
1
1
1
1
1
1
1
1
1
1
1
1
1
1
1
1
1
1
1
1
1
1
1
1
1
1
1
1
1
1
1
1
1
1
1
1
1
1
1
1
1
1
1
1
1
1
1
1
1
1
1
1
1
1
1
1
SCALARS extent double 1
LOOKUP_TABLE default
0.0125
0.0125
0.0125
0.0125
0.0125
0.0125
0.0125
0.0125
0.0125
0.0125
0.0125
0.0125
0.0125
0.0125
0.0125
0.0125
0.0125
0.0125
0.0125
0.0125
0.0125
0.0125
0.0125
0.0125
0.0125
0.0125
0.0125
0.0125
0.0125
0.0125
0.0125
0.0125
0.0125
0.0125
0.0125
0.0125
0.0125
0.0125
0.0125
0.0125
0.0125
0.0125
0.0125
0.0125
0.0125
0.0125
0.0125
0.0125
0.0125
0.0125
0.0125
0.0125
0.0125
0.0125
0.0125
0.0125
0.0125
0.0125
0.0125
0.0125
0.0125
0.0125
0.0125
0.0125
SCALARS pressure double 1
LOOKUP_TABLE default
-3.33215e-11
2.02605e-10
-1.50489e-11
1.81481e-10
-5.98985e-11
-1.7143e-10
-7.48972e-11
-1.70917e-10
6.93222e-11
1.32929e-10
6.20077e-11
1.37736e-10
-7.50144e-11
-2.16402e-11
-7.84191e-11
-2.81655e-11
-4.77796e-12
1.84524e-10
-3.23948e-11
1.92549e-10
-1.03669e-10
-1.75748e-10
-1.07739e-10
-1.90386e-10
9.21179e-11
1.509e-10
8.21719e-11
1.44449e-10
-9.69066e-11
-3.23016e-11
-9.1124e-11
-3.31289e-11
-4.5329e-11
1.88055e-10
-1.60002e-11
1.80748e-10
-9.94111e-11
-1.92508e-10
-1.07694e-10
-1.82231e-10
7.74192e-11
1.53299e-10
9.65045e-11
1.47817e-10
-9.20237e-11
-2.50218e-11
-9.26436e-11
-3.08104e-11
-2.7849e-11
1.78035e-10
-3.04818e-11
2.0424e-10
-7.77052e-11
-1.62854e-10
-6.64809e-11
-1.68526e-10
6.26665e-11
1.3581e-10
6.46534e-11
1.33139e-10
-7.3088e-11
-2.38647e-11
-7.11818e-11
-1.80307e-11
SCALARS density double 1
LOOKUP_TABLE default
1000
1000
1000
1000
1000
1000
1000
1000
1000
1000
1000
1000
1000
1000
1000
1000
1000
1000
1000
1000
1000
1000
1000
1000
1000
1000
1000
1000
1000
1000
1000
1000
1000
1000
1000
1000
1000
1000
1000
1000
1000
1000
1000
1000
1000
1000
1000
1000
1000
1000
1000
1000
1000
1000
1000
1000
1000
1000
1000
1000
1000
1000
1000
1000
