# vtk DataFile Version 3.0
Frame: 37, Time: 0.634
ASCII
DATASET UNSTRUCTURED_GRID
POINTS 64 double
0.854048 0.25898 0 
0.843564 0.235852 0 
0.828938 0.270326 0 
0.818211 0.24683 0 
0.832417 0.213669 0 
0.821552 0.18985 0 
0.809202 0.223597 0 
0.797149 0.198773 0 
0.812355 0.166139 0 
0.799893 0.141826 0 
0.787448 0.175758 0 
0.776944 0.152349 0 
0.789668 0.117275 0 
0.777756 0.0946951 0 
0.766486 0.12915 0 
0.754644 0.105895 0 
0.806522 0.280634 0 
0.794703 0.257375 0 
0.784242 0.292186 0 
0.771556 0.266286 0 
0.785949 0.233675 0 
0.77522 0.209771 0 
0.762394 0.243096 0 
0.751582 0.219528 0 
0.764213 0.186989 0 
0.754149 0.164412 0 
0.74075 0.197275 0 
0.730423 0.174556 0 
0.74389 0.139812 0 
0.731627 0.116308 0 
0.720609 0.150019 0 
0.708813 0.126368 0 
0.761655 0.301594 0 
0.748648 0.278024 0 
0.737672 0.310961 0 
0.726127 0.28756 0 
0.739811 0.254373 0 
0.727916 0.231113 0 
0.71524 0.263746 0 
0.704727 0.239955 0 
0.716699 0.208381 0 
0.707593 0.183981 0 
0.693428 0.217017 0 
0.685299 0.192833 0 
0.697784 0.159328 0 
0.686128 0.136355 0 
0.67442 0.169346 0 
0.662245 0.147132 0 
0.713672 0.319228 0 
0.702671 0.296313 0 
0.690721 0.330778 0 
0.679469 0.307361 0 
0.692003 0.272585 0 
0.681054 0.248745 0 
0.669669 0.283848 0 
0.657846 0.261711 0 
0.670301 0.224908 0 
0.660667 0.201256 0 
0.647081 0.238307 0 
0.636504 0.214586 0 
0.648892 0.177835 0 
0.637622 0.155499 0 
0.625058 0.191736 0 
0.615327 0.166921 0 
CELLS 64 128
1 0
1 1
1 2
1 3
1 4
1 5
1 6
1 7
1 8
1 9
1 10
1 11
1 12
1 13
1 14
1 15
1 16
1 17
1 18
1 19
1 20
1 21
1 22
1 23
1 24
1 25
1 26
1 27
1 28
1 29
1 30
1 31
1 32
1 33
1 34
1 35
1 36
1 37
1 38
1 39
1 40
1 41
1 42
1 43
1 44
1 45
1 46
1 47
1 48
1 49
1 50
1 51
1 52
1 53
1 54
1 55
1 56
1 57
1 58
1 59
1 60
1 61
1 62
1 63
CELL_TYPES 64
1
1
1
1
1
1
1
1
1
1
1
1
1
1
1
1
1
1
1
1
1
1
1
1
1
1
1
1
1
1
1
1
1
1
1
1
1
1
1
1
1
1
1
1
1
1
1
1
1
1
1
1
1
1
1
1
1
1
1
1
1
1
1
1
POINT_DATA 64
VECTORS displacement double
0.341548 -0.35352 0 
0.331064 -0.401648 0 
0.291438 -0.342174 0 
0.280711 -0.39067 0 
0.319917 -0.448831 0 
0.309052 -0.49765 0 
0.271702 -0.438903 0 
0.259649 -0.488727 0 
0.299855 -0.546361 0 
0.287393 -0.595674 0 
0.249948 -0.536742 0 
0.239444 -0.585151 0 
0.277168 -0.645225 0 
0.265256 -0.692805 0 
0.228986 -0.63335 0 
0.217144 -0.681605 0 
0.244022 -0.331866 0 
0.232203 -0.380125 0 
0.196742 -0.320314 0 
0.184056 -0.371214 0 
0.223449 -0.428825 0 
0.21272 -0.477729 0 
0.174894 -0.419404 0 
0.164082 -0.467972 0 
0.201713 -0.525511 0 
0.191649 -0.573088 0 
0.15325 -0.515225 0 
0.142923 -0.562944 0 
0.18139 -0.622688 0 
0.169127 -0.671192 0 
0.133109 -0.612481 0 
0.121313 -0.661132 0 
0.149155 -0.310906 0 
0.136148 -0.359476 0 
0.100172 -0.301539 0 
0.0886268 -0.34994 0 
0.127311 -0.408127 0 
0.115416 -0.456387 0 
0.0777395 -0.398754 0 
0.0672274 -0.447545 0 
0.104199 -0.504119 0 
0.095093 -0.553519 0 
0.0559285 -0.495483 0 
0.0477987 -0.544667 0 
0.0852838 -0.603172 0 
0.0736284 -0.651145 0 
0.0369199 -0.593154 0 
0.0247455 -0.640368 0 
0.0511721 -0.293272 0 
0.0401711 -0.341187 0 
0.00322132 -0.281722 0 
-0.00803114 -0.330139 0 
0.0295028 -0.389915 0 
0.0185536 -0.438755 0 
-0.0178308 -0.378652 0 
-0.0296536 -0.425789 0 
0.00780108 -0.487592 0 
-0.00183347 -0.536244 0 
-0.0404194 -0.474193 0 
-0.0509962 -0.522914 0 
-0.0136079 -0.584665 0 
-0.0248782 -0.632001 0 
-0.0624423 -0.570764 0 
-0.0721728 -0.620579 0 
VECTORS velocity double
-1.32461 -1.66567 0 
-1.84888 -1.41705 0 
-1.32598 -1.48962 0 
-2.01185 -0.840248 0 
-1.07475 -1.89072 0 
-1.44572 -1.21476 0 
-1.68838 -0.658745 0 
-1.49988 -1.06617 0 
-1.63867 -0.94424 0 
-1.83367 -1.71922 0 
-1.30511 -0.841896 0 
-1.44007 -1.23194 0 
-1.31892 -1.24911 0 
-1.48388 -1.19179 0 
-1.53712 -0.792887 0 
-1.65868 -0.834752 0 
-1.23371 -1.7574 0 
-1.28818 -1.79739 0 
-1.53633 -0.689878 0 
-1.89064 -0.717943 0 
-1.48513 -1.12459 0 
-1.26098 -1.64822 0 
-1.9079 -0.699763 0 
-1.71281 -0.816856 0 
-1.30111 -1.32737 0 
-1.15483 -1.04797 0 
-1.82027 -0.767529 0 
-1.47729 -0.861752 0 
-1.59329 -1.29727 0 
-1.39395 -1.40486 0 
-1.63609 -1.07196 0 
-1.42931 -1.16127 0 
-1.6329 -1.03349 0 
-1.44104 -0.756055 0 
-2.05167 -1.26006 0 
-1.83085 -1.42054 0 
-1.23973 -1.13377 0 
-1.07197 -1.21958 0 
-1.44479 -1.29529 0 
-1.51835 -1.32738 0 
-1.12337 -1.12292 0 
-1.17383 -1.15455 0 
-1.76622 -1.91145 0 
-1.60373 -1.34797 0 
-1.51344 -1.47941 0 
-1.35154 -1.10406 0 
-1.73777 -1.22511 0 
-1.68131 -1.09113 0 
-1.97359 -1.26939 0 
-2.24656 -1.55543 0 
-1.5472 -1.03657 0 
-1.48951 -0.980749 0 
-1.69011 -1.50103 0 
-1.41091 -1.25874 0 
-1.47892 -1.27207 0 
-1.74898 -0.854766 0 
-1.04898 -1.25218 0 
-1.27109 -0.95551 0 
-1.58883 -1.12334 0 
-2.08139 -1.01125 0 
-1.36926 -0.866497 0 
-1.56492 -0.425657 0 
-1.75366 -0.502625 0 
-1.38631 -1.30152 0 
SCALARS mass double 1
LOOKUP_TABLE default
0.625
0.625
0.625
0.625
0.625
0.625
0.625
0.625
0.625
0.625
0.625
0.625
0.625
0.625
0.625
0.625
0.625
0.625
0.625
0.625
0.625
0.625
0.625
0.625
0.625
0.625
0.625
0.625
0.625
0.625
0.625
0.625
0.625
0.625
0.625
0.625
0.625
0.625
0.625
0.625
0.625
0.625
0.625
0.625
0.625
0.625
0.625
0.625
0.625
0.625
0.625
0.625
0.625
0.625
0.625
0.625
0.625
0.625
0.625
0.625
0.625
0.625
0.625
0.625
SCALARS volume double 1
LOOKUP_TABLE default
0.000631462
0.000614232
0.000615091
0.000639546
0.000633914
0.000635805
0.000608771
0.000596268
0.000646287
0.000617778
0.000632771
0.000639216
0.000635908
0.000628066
0.00061454
0.000605877
0.000630205
0.000621561
0.000633517
0.000634464
0.000628907
0.000626069
0.000638013
0.000623545
0.000574337
0.000640651
0.000616042
0.000657526
0.000630343
0.00061727
0.000615921
0.000615546
0.000625765
0.000626276
0.000627832
0.000627205
0.000592514
0.000636953
0.000635298
0.000624207
0.000627572
0.000608615
0.000605031
0.000602354
0.000609189
0.000611257
0.000629533
0.000621966
0.000623569
0.000615831
0.000626832
0.000621743
0.000586975
0.000651095
0.000604121
0.000633228
0.000624781
0.000656315
0.000611734
0.000632018
0.00064513
0.000611497
0.000628844
0.000650694
VECTORS momentum double
-0.827881 -1.04104 0 
-1.15555 -0.885658 0 
-0.828739 -0.931014 0 
-1.25741 -0.525155 0 
-0.67172 -1.1817 0 
-0.903575 -0.759225 0 
-1.05524 -0.411716 0 
-0.937422 -0.666354 0 
-1.02417 -0.59015 0 
-1.14604 -1.07452 0 
-0.815695 -0.526185 0 
-0.900043 -0.769961 0 
-0.824325 -0.780693 0 
-0.927423 -0.744866 0 
-0.960703 -0.495554 0 
-1.03667 -0.52172 0 
-0.771067 -1.09837 0 
-0.805114 -1.12337 0 
-0.960207 -0.431174 0 
-1.18165 -0.448714 0 
-0.928204 -0.70287 0 
-0.788115 -1.03014 0 
-1.19244 -0.437352 0 
-1.07051 -0.510535 0 
-0.813197 -0.829607 0 
-0.721767 -0.65498 0 
-1.13767 -0.479706 0 
-0.923307 -0.538595 0 
-0.995809 -0.810795 0 
-0.871216 -0.878037 0 
-1.02255 -0.669973 0 
-0.893317 -0.725792 0 
-1.02057 -0.645932 0 
-0.900651 -0.472534 0 
-1.28229 -0.787539 0 
-1.14428 -0.887835 0 
-0.774832 -0.708607 0 
-0.66998 -0.762237 0 
-0.902995 -0.809557 0 
-0.948971 -0.829615 0 
-0.702108 -0.701823 0 
-0.733646 -0.721591 0 
-1.10388 -1.19466 0 
-1.00233 -0.842479 0 
-0.945898 -0.924633 0 
-0.844714 -0.690038 0 
-1.08611 -0.765693 0 
-1.05082 -0.681957 0 
-1.23349 -0.793369 0 
-1.4041 -0.972144 0 
-0.966998 -0.647854 0 
-0.930944 -0.612968 0 
-1.05632 -0.938145 0 
-0.881819 -0.786712 0 
-0.924326 -0.795044 0 
-1.09311 -0.534229 0 
-0.655613 -0.782611 0 
-0.794434 -0.597193 0 
-0.993021 -0.702086 0 
-1.30087 -0.632032 0 
-0.855788 -0.54156 0 
-0.978074 -0.266036 0 
-1.09604 -0.314141 0 
-0.866443 -0.813448 0 
VECTORS body_force double
0 -9.81 0 
0 -9.81 0 
0 -9.81 0 
0 -9.81 0 
0 -9.81 0 
0 -9.81 0 
0 -9.81 0 
0 -9.81 0 
0 -9.81 0 
0 -9.81 0 
0 -9.81 0 
0 -9.81 0 
0 -9.81 0 
0 -9.81 0 
0 -9.81 0 
0 -9.81 0 
0 -9.81 0 
0 -9.81 0 
0 -9.81 0 
0 -9.81 0 
0 -9.81 0 
0 -9.81 0 
0 -9.81 0 
0 -9.81 0 
0 -9.81 0 
0 -9.81 0 
0 -9.81 0 
0 -9.81 0 
0 -9.81 0 
0 -9.81 0 
0 -9.81 0 
0 -9.81 0 
0 -9.81 0 
0 -9.81 0 
0 -9.81 0 
0 -9.81 0 
0 -9.81 0 
0 -9.81 0 
0 -9.81 0 
0 -9.81 0 
0 -9.81 0 
0 -9.81 0 
0 -9.81 0 
0 -9.81 0 
0 -9.81 0 
0 -9.81 0 
0 -9.81 0 
0 -9.81 0 
0 -9.81 0 
0 -9.81 0 
0 -9.81 0 
0 -9.81 0 
0 -9.81 0 
0 -9.81 0 
0 -9.81 0 
0 -9.81 0 
0 -9.81 0 
0 -9.81 0 
0 -9.81 0 
0 -9.81 0 
0 -9.81 0 
0 -9.81 0 
0 -9.81 0 
0 -9.81 0 
TENSORS cauchy_stress double
1079.07 -1291.75 0
-1291.75 899.074 0
0 0 0

-2360.78 -2817.4 0
-2817.4 -981.29 0
0 0 0

-1122.4 -223.849 0
-223.849 -1950.87 0
0 0 0

3464.27 -1898.55 0
-1898.55 960.229 0
0 0 0

2196.79 2121.02 0
2121.02 526.683 0
0 0 0

2092.76 -2925.11 0
-2925.11 1203.43 0
0 0 0

-4410.75 618.072 0
618.072 -648.797 0
0 0 0

-7871.23 944.649 0
944.649 -1179.11 0
0 0 0

4543.78 3643.51 0
3643.51 1896.97 0
0 0 0

-1821.51 2716.45 0
2716.45 -413.451 0
0 0 0

1219.11 -2577.39 0
-2577.39 1157.38 0
0 0 0

2138.76 -177.475 0
-177.475 2186.46 0
0 0 0

428.04 -1982.19 0
-1982.19 2899.19 0
0 0 0

90.3747 1523.75 0
1523.75 850.825 0
0 0 0

-855.572 -348.747 0
-348.747 -2390.02 0
0 0 0

-4162.23 82.622 0
82.622 -1813.58 0
0 0 0

2417.18 -966.832 0
-966.832 -822.271 0
0 0 0

-1330.99 -665.574 0
-665.574 270.017 0
0 0 0

-2174.94 4513.61 0
4513.61 4777.72 0
0 0 0

-191.885 45.9301 0
45.9301 3082.1 0
0 0 0

1024.93 242.179 0
242.179 173.577 0
0 0 0

1832.99 2493.98 0
2493.98 -1504.46 0
0 0 0

1962.49 3621.59 0
3621.59 2000.27 0
0 0 0

2084.72 -2121.05 0
-2121.05 -2532.81 0
0 0 0

-6319.82 1962.23 0
1962.23 -9936.99 0
0 0 0

2135.85 1000.16 0
1000.16 2620.57 0
0 0 0

1720.65 -3878.83 0
-3878.83 -4496.89 0
0 0 0

2248.19 688.88 0
688.88 7508.2 0
0 0 0

-496.662 1659.51 0
1659.51 2133.72 0
0 0 0

-2262.91 604.322 0
604.322 -130.309 0
0 0 0

-2404.4 1102.75 0
1102.75 -409.783 0
0 0 0

-3402.09 2877.65 0
2877.65 470.891 0
0 0 0

-111.166 -2078.1 0
-2078.1 346.369 0
0 0 0

-2082.59 2114.06 0
2114.06 2474.73 0
0 0 0

-1409.91 2343.3 0
2343.3 2279.35 0
0 0 0

-518.258 3662.26 0
3662.26 1195.64 0
0 0 0

-7547.95 -3864.05 0
-3864.05 -2716.95 0
0 0 0

2282.26 4661.52 0
4661.52 1361 0
0 0 0

4178.72 854.738 0
854.738 -1035.82 0
0 0 0

5491.77 4402.64 0
4402.64 -5736.02 0
0 0 0

-801.485 -1747.62 0
-1747.62 1591.15 0
0 0 0

-4612.79 3837.99 0
3837.99 -495.998 0
0 0 0

-2709.6 4918.91 0
4918.91 -3534.98 0
0 0 0

-1100.81 2597.73 0
2597.73 -5996.67 0
0 0 0

-619.232 4443.52 0
4443.52 -4308.44 0
0 0 0

-1236.12 2805.88 0
2805.88 -3039.55 0
0 0 0

809.771 -832.541 0
-832.541 580.068 0
0 0 0

2408.92 1503.53 0
1503.53 -3344.8 0
0 0 0

-254.463 -2048.27 0
-2048.27 -186.335 0
0 0 0

-363.358 268.552 0
268.552 -2478.89 0
0 0 0

-1501.1 396.338 0
396.338 2063.82 0
0 0 0

-1330.69 159.425 0
159.425 325.855 0
0 0 0

-7123.55 1973.06 0
1973.06 -4947.45 0
0 0 0

3772.57 488.526 0
488.526 4093.44 0
0 0 0

-5101.55 -2084.92 0
-2084.92 -1432.53 0
0 0 0

-953.363 -928.041 0
-928.041 3468.67 0
0 0 0

-1506.98 -1269.33 0
-1269.33 1439.52 0
0 0 0

4127.35 164.164 0
164.164 5274.51 0
0 0 0

-964.96 1715.5 0
1715.5 -3160.91 0
0 0 0

669.099 -1881.16 0
-1881.16 1478.14 0
0 0 0

5720.87 -2007.67 0
-2007.67 375.451 0
0 0 0

-2109.46 -45.3098 0
-45.3098 -2090.92 0
0 0 0

1731.81 -1216.45 0
-1216.45 -552.527 0
0 0 0

3941.14 882.798 0
882.798 3806.45 0
0 0 0

TENSORS velocity_gradient double
-0.00652934 4.92728 0
0.190051 -2.87728 0
0 0 0

0.134226 -2.27931 0
-3.9952 -0.295814 0
0 0 0

1.51722 4.30731 0
-5.41109 -1.90536 0
0 0 0

0.572989 -0.577559 0
-4.65996 -0.983133 0
0 0 0

-0.291491 -2.60655 0
-5.21345 -0.436756 0
0 0 0

-1.52898 4.92497 0
-4.83874 -0.782061 0
0 0 0

-0.0470768 -3.18398 0
-5.00805 -0.922009 0
0 0 0

0.137527 -0.235145 0
-3.28468 -0.0140727 0
0 0 0

-3.83881 4.03873 0
-2.99691 -0.0753823 0
0 0 0

-3.03585 -2.41779 0
-3.22406 1.26473 0
0 0 0

-0.327161 1.98756 0
-1.65263 1.15151 0
0 0 0

-1.61112 1.0133 0
-1.38018 0.88762 0
0 0 0

0.40414 -1.08257 0
-1.82403 -0.338879 0
0 0 0

1.55794 -3.93626 0
-2.199 -1.62657 0
0 0 0

-0.507351 0.701691 0
-1.62418 -0.730079 0
0 0 0

1.25923 1.60356 0
-1.98651 -0.927358 0
0 0 0

1.95762 3.33917 0
-5.84788 -0.945147 0
0 0 0

0.324309 2.27916 0
-4.22641 -0.801138 0
0 0 0

5.52499 0.803947 0
-3.06225 -1.0147 0
0 0 0

1.52628 -1.14293 0
-3.81448 -1.38094 0
0 0 0

-0.459298 -2.87888 0
-3.60289 -0.555682 0
0 0 0

0.633138 -2.38654 0
-2.47471 -0.0472317 0
0 0 0

-0.845392 -1.82847 0
-4.02743 0.483963 0
0 0 0

-0.098545 -1.3668 0
-0.691088 0.926221 0
0 0 0

0.377686 0.521296 0
-1.80258 1.46344 0
0 0 0

-0.948808 -0.0783548 0
-1.29522 1.57009 0
0 0 0

-0.593695 -0.474684 0
4.8472 1.01961 0
0 0 0

0.357859 0.360543 0
3.23403 0.320908 0
0 0 0

0.365477 1.47234 0
1.2242 -0.837565 0
0 0 0

-1.76381 0.375548 0
2.40463 -0.467926 0
0 0 0

1.10587 0.181152 0
1.67708 -0.284382 0
0 0 0

-0.740009 -1.93634 0
2.06602 0.296698 0
0 0 0

6.9553 -2.09575 0
-1.87707 -1.51076 0
0 0 0

1.51715 -4.27604 0
0.514172 -1.73455 0
0 0 0

-1.29547 -2.72059 0
1.78165 -3.19131 0
0 0 0

-0.22647 -5.27435 0
4.18763 -0.401747 0
0 0 0

-1.06932 -4.6744 0
6.61656 -1.25899 0
0 0 0

-1.05621 -0.974864 0
6.35084 0.378115 0
0 0 0

-0.838289 -5.55818 0
5.95468 0.418023 0
0 0 0

-1.12377 -0.756316 0
6.66059 -0.559196 0
0 0 0

-0.842489 -0.868787 0
5.43574 -0.0760788 0
0 0 0

-0.0766649 1.40366 0
3.94438 -1.38436 0
0 0 0

2.29722 -0.709943 0
-5.05734 -1.065 0
0 0 0

2.42565 1.39777 0
-6.94609 -1.86291 0
0 0 0

1.29531 1.59293 0
-2.67819 -1.80395 0
0 0 0

0.437693 -3.72663 0
-3.93392 3.01564 0
0 0 0

1.76721 1.14222 0
-6.61936 -1.71822 0
0 0 0

1.00984 -3.07572 0
-5.58188 4.38322 0
0 0 0

-2.22718 -0.0263201 0
0.707743 -0.0858258 0
0 0 0

-0.491031 -3.68354 0
2.57961 1.22827 0
0 0 0

-0.939979 1.37328 0
-2.5667 2.02861 0
0 0 0

-1.96216 0.882067 0
-2.1972 2.20617 0
0 0 0

0.27452 -5.35292 0
-3.38097 1.34576 0
0 0 0

2.34239 -2.48442 0
-4.58107 -0.438027 0
0 0 0

-0.842855 -3.12611 0
-2.81645 0.220738 0
0 0 0

1.37267 -1.93983 0
-3.93578 -0.378592 0
0 0 0

2.62893 -0.732214 0
-5.76018 -2.19223 0
0 0 0

2.54673 -0.269648 0
-6.8019 -2.30368 0
0 0 0

3.81622 -1.06898 0
-2.43923 -3.08058 0
0 0 0

2.60961 -1.74266 0
-0.312497 -3.06894 0
0 0 0

0.817426 0.252537 0
-3.37782 -1.31994 0
0 0 0

-2.52574 -0.541048 0
1.10134 -1.06153 0
0 0 0

0.674934 -1.6471 0
0.137051 -0.728306 0
0 0 0

-1.51534 -2.51052 0
0.796926 -0.468177 0
0 0 0

SCALARS active double 1
LOOKUP_TABLE default
1
1
1
1
1
1
1
1
1
1
1
1
1
1
1
1
1
1
1
1
1
1
1
1
1
1
1
1
1
1
1
1
1
1
1
1
1
1
1
1
1
1
1
1
1
1
1
1
1
1
1
1
1
1
1
1
1
1
1
1
1
1
1
1
SCALARS extent double 1
LOOKUP_TABLE default
0.0125
0.0125
0.0125
0.0125
0.0125
0.0125
0.0125
0.0125
0.0125
0.0125
0.0125
0.0125
0.0125
0.0125
0.0125
0.0125
0.0125
0.0125
0.0125
0.0125
0.0125
0.0125
0.0125
0.0125
0.0125
0.0125
0.0125
0.0125
0.0125
0.0125
0.0125
0.0125
0.0125
0.0125
0.0125
0.0125
0.0125
0.0125
0.0125
0.0125
0.0125
0.0125
0.0125
0.0125
0.0125
0.0125
0.0125
0.0125
0.0125
0.0125
0.0125
0.0125
0.0125
0.0125
0.0125
0.0125
0.0125
0.0125
0.0125
0.0125
0.0125
0.0125
0.0125
0.0125
SCALARS pressure double 1
LOOKUP_TABLE default
-989.073
1671.03
1536.64
-2212.25
-1361.73
-1648.1
2529.77
4525.17
-3220.37
1117.48
-1188.24
-2162.61
-1663.62
-470.6
1622.8
2987.9
-797.454
530.486
-1301.39
-1445.11
-599.254
-164.266
-1981.38
224.042
8128.41
-2378.21
1388.12
-4878.19
-818.528
1196.61
1407.09
1465.6
-117.601
-196.067
-434.716
-338.693
5132.45
-1821.63
-1571.45
122.125
-394.834
2554.4
3122.29
3548.74
2463.83
2137.83
-694.92
467.944
220.399
1421.12
-281.364
502.419
6035.5
-3933
3267.04
-1257.65
33.7277
-4700.93
2062.93
-1073.62
-3048.16
2100.19
-589.641
-3873.8
SCALARS density double 1
LOOKUP_TABLE default
989.766
1017.53
1016.11
977.255
985.938
983.006
1026.66
1048.19
967.063
1011.69
987.718
977.76
982.847
995.118
1017.02
1031.56
991.741
1005.53
986.557
985.083
993.787
998.293
979.605
1002.33
1088.21
975.57
1014.54
950.532
991.523
1012.52
1014.74
1015.36
998.778
997.963
995.489
996.484
1054.83
981.233
983.79
1001.27
995.902
1026.92
1033
1037.6
1025.95
1022.48
992.799
1004.88
1002.29
1014.89
997.078
1005.24
1064.78
959.922
1034.56
987.006
1000.35
952.286
1021.69
988.896
968.796
1022.08
993.886
960.513
