# vtk DataFile Version 3.0
Frame: 40, Time: 0.684
ASCII
DATASET UNSTRUCTURED_GRID
POINTS 64 double
0.0482237 0.0656363 0 
0.046056 0.0900498 0 
0.0734429 0.0685856 0 
0.0702048 0.0926783 0 
0.0427167 0.114768 0 
0.042649 0.140327 0 
0.0676296 0.117035 0 
0.0666981 0.142545 0 
0.0407106 0.165125 0 
0.0399547 0.192138 0 
0.0651508 0.168238 0 
0.0630901 0.193817 0 
0.0422609 0.218832 0 
0.0403585 0.244056 0 
0.0650212 0.221048 0 
0.0631079 0.247092 0 
0.099076 0.0727495 0 
0.0939913 0.0967832 0 
0.123651 0.0754034 0 
0.118139 0.0996118 0 
0.0909548 0.121144 0 
0.0881478 0.145814 0 
0.116272 0.124444 0 
0.11247 0.148185 0 
0.0866205 0.171852 0 
0.0845863 0.197418 0 
0.110982 0.173953 0 
0.109411 0.198757 0 
0.0859171 0.223985 0 
0.0857248 0.252074 0 
0.109665 0.225013 0 
0.108679 0.251221 0 
0.148029 0.0772597 0 
0.140874 0.10247 0 
0.173728 0.0828809 0 
0.165242 0.107169 0 
0.13971 0.127829 0 
0.135798 0.151664 0 
0.164605 0.131747 0 
0.160223 0.155512 0 
0.134855 0.176578 0 
0.133786 0.201023 0 
0.15898 0.180029 0 
0.157944 0.203798 0 
0.132798 0.228274 0 
0.131844 0.253718 0 
0.1565 0.22948 0 
0.155833 0.255457 0 
0.198417 0.0857902 0 
0.189003 0.110862 0 
0.221986 0.0877702 0 
0.213441 0.112971 0 
0.189346 0.134323 0 
0.185429 0.157513 0 
0.215369 0.135622 0 
0.211437 0.159429 0 
0.183552 0.181443 0 
0.183044 0.205701 0 
0.20872 0.184383 0 
0.208583 0.2092 0 
0.180343 0.231065 0 
0.179123 0.255737 0 
0.204997 0.234974 0 
0.20442 0.259633 0 
CELLS 64 128
1 0
1 1
1 2
1 3
1 4
1 5
1 6
1 7
1 8
1 9
1 10
1 11
1 12
1 13
1 14
1 15
1 16
1 17
1 18
1 19
1 20
1 21
1 22
1 23
1 24
1 25
1 26
1 27
1 28
1 29
1 30
1 31
1 32
1 33
1 34
1 35
1 36
1 37
1 38
1 39
1 40
1 41
1 42
1 43
1 44
1 45
1 46
1 47
1 48
1 49
1 50
1 51
1 52
1 53
1 54
1 55
1 56
1 57
1 58
1 59
1 60
1 61
1 62
1 63
CELL_TYPES 64
1
1
1
1
1
1
1
1
1
1
1
1
1
1
1
1
1
1
1
1
1
1
1
1
1
1
1
1
1
1
1
1
1
1
1
1
1
1
1
1
1
1
1
1
1
1
1
1
1
1
1
1
1
1
1
1
1
1
1
1
1
1
1
1
POINT_DATA 64
VECTORS displacement double
-0.364276 -0.346864 0 
-0.366444 -0.34745 0 
-0.364057 -0.343914 0 
-0.367295 -0.344822 0 
-0.369783 -0.347732 0 
-0.369851 -0.347173 0 
-0.36987 -0.345465 0 
-0.370802 -0.344955 0 
-0.371789 -0.347375 0 
-0.372545 -0.345362 0 
-0.372349 -0.344262 0 
-0.37441 -0.343683 0 
-0.370239 -0.343668 0 
-0.372142 -0.343444 0 
-0.372479 -0.341452 0 
-0.374392 -0.340408 0 
-0.363424 -0.339751 0 
-0.368509 -0.340717 0 
-0.363849 -0.337097 0 
-0.369361 -0.337888 0 
-0.371545 -0.341356 0 
-0.374352 -0.341686 0 
-0.371228 -0.338056 0 
-0.37503 -0.339315 0 
-0.375879 -0.340648 0 
-0.377914 -0.340082 0 
-0.376518 -0.338547 0 
-0.378089 -0.338743 0 
-0.376583 -0.338515 0 
-0.376775 -0.335426 0 
-0.377835 -0.337487 0 
-0.378821 -0.336279 0 
-0.364471 -0.33524 0 
-0.371626 -0.33503 0 
-0.363772 -0.329619 0 
-0.372258 -0.330331 0 
-0.37279 -0.334671 0 
-0.376702 -0.335836 0 
-0.372895 -0.330753 0 
-0.377277 -0.331988 0 
-0.377645 -0.335922 0 
-0.378714 -0.336477 0 
-0.37852 -0.332471 0 
-0.379556 -0.333702 0 
-0.379702 -0.334226 0 
-0.380656 -0.333782 0 
-0.381 -0.33302 0 
-0.381667 -0.332043 0 
-0.364083 -0.32671 0 
-0.373497 -0.326638 0 
-0.365514 -0.32473 0 
-0.374059 -0.324529 0 
-0.373154 -0.328177 0 
-0.377071 -0.329987 0 
-0.372131 -0.326878 0 
-0.376063 -0.328071 0 
-0.378948 -0.331057 0 
-0.379456 -0.331799 0 
-0.37878 -0.328117 0 
-0.378917 -0.3283 0 
-0.382157 -0.331435 0 
-0.383377 -0.331763 0 
-0.382503 -0.327526 0 
-0.38308 -0.327867 0 
VECTORS velocity double
-0.689719 -0.0323272 0 
-0.597675 0.941413 0 
-0.891337 0.602983 0 
-1.12632 0.556948 0 
-0.698967 0.416376 0 
-0.309076 1.03678 0 
-0.575094 0.0178879 0 
-0.297059 0.895696 0 
-0.145634 1.52635 0 
-0.541001 1.76367 0 
-0.350087 1.16693 0 
-0.294369 0.959392 0 
0.0715309 1.47681 0 
-0.181485 1.25837 0 
0.11873 1.18762 0 
0.307165 1.07947 0 
-0.170128 0.220978 0 
-0.795287 0.416433 0 
-0.126224 0.342722 0 
-0.380634 0.662747 0 
-0.617883 -0.0849204 0 
-0.523734 0.51992 0 
-0.40281 0.115528 0 
-0.627135 0.370902 0 
-0.603823 0.695049 0 
-0.291862 0.597989 0 
-0.650414 0.569979 0 
-0.383937 0.322178 0 
-0.0948215 1.05557 0 
0.0567729 0.942995 0 
-0.145023 0.909091 0 
0.191587 0.699037 0 
-0.240944 0.392923 0 
-0.658442 0.478183 0 
-0.439522 0.64979 0 
-0.527131 0.967128 0 
-0.536487 0.128614 0 
-0.41713 0.446066 0 
-0.305384 0.390473 0 
-0.264562 0.851562 0 
-0.581496 0.381756 0 
-0.163181 0.173173 0 
-0.631351 0.828252 0 
-0.177293 0.55453 0 
-0.241723 0.384481 0 
0.144531 0.811759 0 
-0.303049 0.806523 0 
0.106144 1.23497 0 
-0.309359 0.403358 0 
-0.359138 1.00155 0 
-0.484563 0.944141 0 
-0.621889 1.01749 0 
-0.632666 0.215263 0 
-0.300367 0.72519 0 
-0.215433 0.809564 0 
-0.181412 0.874546 0 
-0.378387 0.988741 0 
-0.0676084 0.377974 0 
-0.274598 0.984499 0 
-0.0910021 0.640384 0 
-0.381105 0.746589 0 
-0.128128 0.764391 0 
-0.150301 0.586559 0 
-0.215135 0.651529 0 
SCALARS mass double 1
LOOKUP_TABLE default
0.625
0.625
0.625
0.625
0.625
0.625
0.625
0.625
0.625
0.625
0.625
0.625
0.625
0.625
0.625
0.625
0.625
0.625
0.625
0.625
0.625
0.625
0.625
0.625
0.625
0.625
0.625
0.625
0.625
0.625
0.625
0.625
0.625
0.625
0.625
0.625
0.625
0.625
0.625
0.625
0.625
0.625
0.625
0.625
0.625
0.625
0.625
0.625
0.625
0.625
0.625
0.625
0.625
0.625
0.625
0.625
0.625
0.625
0.625
0.625
0.625
0.625
0.625
0.625
SCALARS volume double 1
LOOKUP_TABLE default
0.000645443
0.000590251
0.000613015
0.000616232
0.000559481
0.00055153
0.000629212
0.000607613
0.00052279
0.000538159
0.000607023
0.000620959
0.00054649
0.00054739
0.000596876
0.000602407
0.000652855
0.000621875
0.000633274
0.000618496
0.00060752
0.000601828
0.000616432
0.000608522
0.000604489
0.00057272
0.000609768
0.000621937
0.000609012
0.000589884
0.000584654
0.00060517
0.000618191
0.000599323
0.00061366
0.000614952
0.000621085
0.000599784
0.000619156
0.000593553
0.000609339
0.000587845
0.000647853
0.000582711
0.000609447
0.000604127
0.000633972
0.000608755
0.000628507
0.000606854
0.000624264
0.000623844
0.000587547
0.000604609
0.000613168
0.000611177
0.000594347
0.000607517
0.000621012
0.000623444
0.000611501
0.000614167
0.000627349
0.000627471
VECTORS momentum double
-0.431074 -0.0202045 0 
-0.373547 0.588383 0 
-0.557086 0.376864 0 
-0.70395 0.348093 0 
-0.436855 0.260235 0 
-0.193172 0.647989 0 
-0.359434 0.01118 0 
-0.185662 0.55981 0 
-0.0910213 0.953969 0 
-0.338126 1.10229 0 
-0.218804 0.729332 0 
-0.183981 0.59962 0 
0.0447068 0.923006 0 
-0.113428 0.786479 0 
0.0742059 0.742265 0 
0.191978 0.674668 0 
-0.10633 0.138111 0 
-0.497054 0.260271 0 
-0.0788901 0.214201 0 
-0.237896 0.414217 0 
-0.386177 -0.0530752 0 
-0.327334 0.32495 0 
-0.251756 0.0722049 0 
-0.39196 0.231813 0 
-0.377389 0.434406 0 
-0.182414 0.373743 0 
-0.406509 0.356237 0 
-0.239961 0.201361 0 
-0.0592634 0.659731 0 
0.0354831 0.589372 0 
-0.0906396 0.568182 0 
0.119742 0.436898 0 
-0.15059 0.245577 0 
-0.411526 0.298864 0 
-0.274701 0.406119 0 
-0.329457 0.604455 0 
-0.335304 0.0803836 0 
-0.260706 0.278791 0 
-0.190865 0.244046 0 
-0.165351 0.532226 0 
-0.363435 0.238597 0 
-0.101988 0.108233 0 
-0.394595 0.517658 0 
-0.110808 0.346581 0 
-0.151077 0.2403 0 
0.0903322 0.507349 0 
-0.189406 0.504077 0 
0.0663403 0.771855 0 
-0.19335 0.252099 0 
-0.224461 0.625967 0 
-0.302852 0.590088 0 
-0.388681 0.63593 0 
-0.395416 0.134539 0 
-0.187729 0.453244 0 
-0.134645 0.505978 0 
-0.113383 0.546591 0 
-0.236492 0.617963 0 
-0.0422553 0.236234 0 
-0.171624 0.615312 0 
-0.0568763 0.40024 0 
-0.238191 0.466618 0 
-0.0800798 0.477744 0 
-0.0939382 0.366599 0 
-0.13446 0.407205 0 
VECTORS body_force double
0 -9.81 0 
0 -9.81 0 
0 -9.81 0 
0 -9.81 0 
0 -9.81 0 
0 -9.81 0 
0 -9.81 0 
0 -9.81 0 
0 -9.81 0 
0 -9.81 0 
0 -9.81 0 
0 -9.81 0 
0 -9.81 0 
0 -9.81 0 
0 -9.81 0 
0 -9.81 0 
0 -9.81 0 
0 -9.81 0 
0 -9.81 0 
0 -9.81 0 
0 -9.81 0 
0 -9.81 0 
0 -9.81 0 
0 -9.81 0 
0 -9.81 0 
0 -9.81 0 
0 -9.81 0 
0 -9.81 0 
0 -9.81 0 
0 -9.81 0 
0 -9.81 0 
0 -9.81 0 
0 -9.81 0 
0 -9.81 0 
0 -9.81 0 
0 -9.81 0 
0 -9.81 0 
0 -9.81 0 
0 -9.81 0 
0 -9.81 0 
0 -9.81 0 
0 -9.81 0 
0 -9.81 0 
0 -9.81 0 
0 -9.81 0 
0 -9.81 0 
0 -9.81 0 
0 -9.81 0 
0 -9.81 0 
0 -9.81 0 
0 -9.81 0 
0 -9.81 0 
0 -9.81 0 
0 -9.81 0 
0 -9.81 0 
0 -9.81 0 
0 -9.81 0 
0 -9.81 0 
0 -9.81 0 
0 -9.81 0 
0 -9.81 0 
0 -9.81 0 
0 -9.81 0 
0 -9.81 0 
TENSORS cauchy_stress double
4336.23 1605.41 0
1605.41 1853.28 0
0 0 0

-9426.63 -1022.5 0
-1022.5 -1573.94 0
0 0 0

0.00271122 -2054.15 0
-2054.15 -3723.42 0
0 0 0

-1346.92 -1102.6 0
-1102.6 -1370.15 0
0 0 0

-17696.3 4290.87 0
4290.87 -3600.21 0
0 0 0

-21376.9 6381.06 0
6381.06 -2672.17 0
0 0 0

1893.99 611.788 0
611.788 -602.378 0
0 0 0

-5972.54 694.071 0
694.071 546.888 0
0 0 0

-26084.4 3140.85 0
3140.85 -8256.45 0
0 0 0

-26864.4 5733.8 0
5733.8 -1904.58 0
0 0 0

-5364.89 351.72 0
351.72 -247.697 0
0 0 0

-5365.51 6618.17 0
6618.17 4118.02 0
0 0 0

-19734.1 2139.02 0
2139.02 -6080.51 0
0 0 0

-25265.6 1945.35 0
1945.35 -232.528 0
0 0 0

-13592.6 -380.336 0
-380.336 4738.39 0
0 0 0

-7156.81 540.311 0
540.311 76.5065 0
0 0 0

6676.5 -33.1875 0
-33.1875 1708.86 0
0 0 0

-3337.88 2815.51 0
2815.51 2374.04 0
0 0 0

3077.21 -871.827 0
-871.827 -548.141 0
0 0 0

-3055.54 1662.28 0
1662.28 1043.91 0
0 0 0

-4101.23 5798.56 0
5798.56 -1353.79 0
0 0 0

-7278.57 3889.9 0
3889.9 13.1833 0
0 0 0

-243.351 2115.39 0
2115.39 -2411.22 0
0 0 0

-3980.51 895.724 0
895.724 -1157.81 0
0 0 0

-8428.75 3233.45 0
3233.45 2011.79 0
0 0 0

-12531.7 3627.81 0
3627.81 -4267.32 0
0 0 0

-6828.06 3888.86 0
3888.86 2083.38 0
0 0 0

-1132.85 2227.65 0
2227.65 187.934 0
0 0 0

-8681.09 1847.64 0
1847.64 3697.8 0
0 0 0

-10820.4 -1095.57 0
-1095.57 -299.88 0
0 0 0

-10362.4 1445.12 0
1445.12 -2470.54 0
0 0 0

-9449.64 3576.16 0
3576.16 3249.07 0
0 0 0

-2165.89 -1161.73 0
-1161.73 59.3882 0
0 0 0

-9165.02 1939.21 0
1939.21 1097.69 0
0 0 0

-701.444 -266.279 0
-266.279 -2819.88 0
0 0 0

-2663.04 368.04 0
368.04 -453.823 0
0 0 0

-1036.33 2900.99 0
2900.99 -171.917 0
0 0 0

-3448.34 1939.9 0
1939.9 -4471.29 0
0 0 0

872.657 -249.126 0
-249.126 -2679.31 0
0 0 0

-3519.31 1068 0
1068 -6408.68 0
0 0 0

-5568.4 4691.11 0
4691.11 688.363 0
0 0 0

-6717.45 1507.46 0
1507.46 -5068.89 0
0 0 0

1458.87 3165.5 0
3165.5 5447.34 0
0 0 0

-690.569 -698.594 0
-698.594 -12782.6 0
0 0 0

-9533.67 1964.54 0
1964.54 4687.52 0
0 0 0

-2349.23 414.438 0
414.438 -4182.99 0
0 0 0

-3116.19 2201.89 0
2201.89 5857.23 0
0 0 0

-7124.15 -836.752 0
-836.752 2059.66 0
0 0 0

-1300.74 29.2044 0
29.2044 2376.69 0
0 0 0

-5075.96 301.009 0
301.009 -590.126 0
0 0 0

-669.125 -383.603 0
-383.603 442.596 0
0 0 0

-711.625 -800.529 0
-800.529 355.62 0
0 0 0

-3533.53 139.399 0
139.399 -8350.15 0
0 0 0

12.2715 -879.236 0
-879.236 -6391.13 0
0 0 0

-1153.27 1453.5 0
1453.5 -2522.16 0
0 0 0

-195.745 -414.332 0
-414.332 -4105.25 0
0 0 0

-6248.34 1439.75 0
1439.75 -3422.45 0
0 0 0

-950.392 455.406 0
455.406 -4505.61 0
0 0 0

-1078.47 -458.768 0
-458.768 -152.606 0
0 0 0

107.763 -451.971 0
-451.971 -587.221 0
0 0 0

-4164.83 2518.33 0
2518.33 -34.2486 0
0 0 0

-2342.26 -1118.52 0
-1118.52 -1020.18 0
0 0 0

-1420.13 11.508 0
11.508 2141.41 0
0 0 0

-52.3784 -302.152 0
-302.152 811.339 0
0 0 0

TENSORS velocity_gradient double
-6.71742 2.57095 0
-1.80661 3.99654 0
0 0 0

-9.75467 2.62435 0
-4.69265 4.20934 0
0 0 0

4.65144 0.450428 0
0.324088 1.37874 0
0 0 0

2.02513 0.804469 0
-2.26846 1.72823 0
0 0 0

-11.0316 5.34164 0
-7.18059 9.64676 0
0 0 0

-7.90123 5.31634 0
-8.63521 9.65852 0
0 0 0

-0.564963 4.25891 0
-5.22395 6.91622 0
0 0 0

-3.24649 4.36932 0
-8.48353 7.05043 0
0 0 0

-6.08151 1.49194 0
-8.65911 6.11727 0
0 0 0

-5.10377 1.4628 0
-7.53802 6.08385 0
0 0 0

-3.15596 2.67725 0
-10.636 5.51264 0
0 0 0

-1.75229 2.55946 0
-12.2466 5.64779 0
0 0 0

-2.74895 4.88068 0
-6.16644 -2.99367 0
0 0 0

0.163765 4.6474 0
-4.74105 -3.10783 0
0 0 0

-0.776801 6.19491 0
-9.99687 -0.507844 0
0 0 0

0.0502157 4.16731 0
-6.54183 -1.08485 0
0 0 0

3.45621 -1.97844 0
0.853147 -0.896865 0
0 0 0

1.66202 -1.04658 0
-2.36002 0.156334 0
0 0 0

2.64757 -2.05551 0
2.10895 -0.088575 0
0 0 0

2.88682 -0.964882 0
3.13493 0.539304 0
0 0 0

-1.01121 1.78869 0
-5.76639 3.91349 0
0 0 0

-3.48966 2.31517 0
-8.87689 4.25361 0
0 0 0

2.5351 0.574458 0
2.095 1.84686 0
0 0 0

2.049 1.72822 0
0.736999 2.26206 0
0 0 0

-2.94457 3.86606 0
-10.8786 4.14861 0
0 0 0

-1.57724 4.43504 0
-12.2071 3.80188 0
0 0 0

1.11852 4.13073 0
-0.575521 2.75973 0
0 0 0

0.10115 5.05805 0
-1.64062 3.41067 0
0 0 0

-0.686433 6.7963 0
-9.571 2.3263 0
0 0 0

0.372419 1.27783 0
-6.02383 0.384155 0
0 0 0

-1.30015 6.6472 0
-1.29075 4.46411 0
0 0 0

-2.28803 2.94935 0
-0.470094 2.44474 0
0 0 0

1.42816 -1.69316 0
3.03512 1.12051 0
0 0 0

2.87949 -0.546214 0
3.13087 0.572414 0
0 0 0

-0.494866 -1.03177 0
4.41198 1.31847 0
0 0 0

0.20015 0.428037 0
4.45443 0.0552366 0
0 0 0

2.47251 0.135709 0
1.9016 0.491013 0
0 0 0

1.94794 1.94953 0
0.550809 1.19652 0
0 0 0

0.948171 0.408353 0
4.66545 0.0496839 0
0 0 0

1.52498 2.3971 0
4.68081 0.516118 0
0 0 0

1.01397 3.18478 0
-0.706427 1.57527 0
0 0 0

-0.0089736 4.32821 0
-1.66902 3.46992 0
0 0 0

1.64472 2.63796 0
4.08674 0.607414 0
0 0 0

1.38084 3.50986 0
3.02034 3.51444 0
0 0 0

-1.48399 5.34754 0
-1.20899 5.04207 0
0 0 0

-2.24832 2.67184 0
-0.344107 3.13765 0
0 0 0

-0.361459 3.90477 0
-0.0133346 4.63574 0
0 0 0

-2.009 3.18069 0
-2.88117 3.53699 0
0 0 0

-0.607634 -0.360934 0
4.53211 1.20317 0
0 0 0

0.309289 1.15089 0
4.48522 0.259157 0
0 0 0

-0.846729 0.150556 0
4.63835 0.437831 0
0 0 0

0.0850973 2.2278 0
3.78645 -0.0498245 0
0 0 0

1.02305 1.1605 0
4.68658 0.261869 0
0 0 0

1.54992 2.74886 0
4.65538 -0.057806 0
0 0 0

1.31936 2.32997 0
3.13286 -0.103927 0
0 0 0

2.03352 2.65543 0
2.77394 -0.307844 0
0 0 0

1.65023 2.74073 0
4.05372 -0.00904596 0
0 0 0

1.31827 2.04571 0
2.88365 1.19349 0
0 0 0

1.70832 2.69163 0
3.0017 -0.333192 0
0 0 0

1.35246 0.606653 0
2.41861 -1.5206 0
0 0 0

-0.476584 2.17065 0
-0.210532 1.66538 0
0 0 0

-2.02081 2.39757 0
-2.98804 1.70077 0
0 0 0

0.773899 0.697169 0
0.107694 -1.18856 0
0 0 0

-0.380482 1.37986 0
-1.58289 0.15113 0
0 0 0

SCALARS active double 1
LOOKUP_TABLE default
1
1
1
1
1
1
1
1
1
1
1
1
1
1
1
1
1
1
1
1
1
1
1
1
1
1
1
1
1
1
1
1
1
1
1
1
1
1
1
1
1
1
1
1
1
1
1
1
1
1
1
1
1
1
1
1
1
1
1
1
1
1
1
1
SCALARS extent double 1
LOOKUP_TABLE default
0.0125
0.0125
0.0125
0.0125
0.0125
0.0125
0.0125
0.0125
0.0125
0.0125
0.0125
0.0125
0.0125
0.0125
0.0125
0.0125
0.0125
0.0125
0.0125
0.0125
0.0125
0.0125
0.0125
0.0125
0.0125
0.0125
0.0125
0.0125
0.0125
0.0125
0.0125
0.0125
0.0125
0.0125
0.0125
0.0125
0.0125
0.0125
0.0125
0.0125
0.0125
0.0125
0.0125
0.0125
0.0125
0.0125
0.0125
0.0125
0.0125
0.0125
0.0125
0.0125
0.0125
0.0125
0.0125
0.0125
0.0125
0.0125
0.0125
0.0125
0.0125
0.0125
0.0125
0.0125
SCALARS pressure double 1
LOOKUP_TABLE default
-3094.76
5500.28
1861.71
1358.53
10648.3
12024.5
-645.808
2712.82
17170.4
14384.5
2806.3
623.744
12907.3
12749.1
4427.09
3540.15
-4192.68
481.922
-1264.53
1005.82
2727.51
3632.69
1327.29
2569.16
3208.48
8399.51
2372.34
472.457
2491.64
5560.13
6416.48
3100.28
1053.25
4033.67
1760.66
1558.43
604.126
3959.81
903.325
4963.99
2440.02
5893.17
-3453.11
6736.57
2423.07
3266.11
-1370.52
2532.24
-537.975
2833.04
113.265
178.003
5941.84
3189.43
1837.72
2150.5
4835.4
2728
615.54
239.729
2099.54
1681.22
-360.639
-379.481
SCALARS density double 1
LOOKUP_TABLE default
968.327
1058.87
1019.55
1014.23
1117.11
1133.21
993.306
1028.62
1195.51
1161.37
1029.62
1006.51
1143.66
1141.78
1047.12
1037.5
957.333
1005.02
986.935
1010.52
1028.77
1038.5
1013.9
1027.08
1033.93
1091.28
1024.98
1004.93
1026.25
1059.53
1069.01
1032.77
1011.01
1042.84
1018.48
1016.34
1006.3
1042.04
1009.44
1052.98
1025.7
1063.21
964.725
1072.57
1025.52
1034.55
985.848
1026.69
994.421
1029.9
1001.18
1001.85
1063.74
1033.73
1019.3
1022.62
1051.57
1028.78
1006.42
1002.5
1022.08
1017.64
996.256
996.061
