# vtk DataFile Version 3.0
Frame: 19, Time: 0.334
ASCII
DATASET UNSTRUCTURED_GRID
POINTS 64 double
0.515223 0.19157 0 
0.523999 0.209957 0 
0.53802 0.182211 0 
0.548656 0.200675 0 
0.528753 0.228664 0 
0.532295 0.247954 0 
0.555046 0.220385 0 
0.558723 0.241449 0 
0.535516 0.268692 0 
0.538848 0.290921 0 
0.562244 0.263504 0 
0.565043 0.285834 0 
0.542487 0.314144 0 
0.547045 0.338159 0 
0.568032 0.308903 0 
0.572347 0.332663 0 
0.560666 0.169435 0 
0.571404 0.188369 0 
0.583966 0.152373 0 
0.593888 0.173919 0 
0.579951 0.208026 0 
0.583921 0.22983 0 
0.603746 0.194832 0 
0.608768 0.217026 0 
0.587692 0.252788 0 
0.590852 0.276002 0 
0.612446 0.240555 0 
0.615836 0.264694 0 
0.594096 0.299749 0 
0.59862 0.323713 0 
0.619501 0.289141 0 
0.624479 0.313779 0 
0.606885 0.137577 0 
0.616585 0.159865 0 
0.629192 0.124715 0 
0.639809 0.146787 0 
0.626613 0.181838 0 
0.633152 0.204361 0 
0.649781 0.169391 0 
0.656872 0.192509 0 
0.636885 0.228846 0 
0.640261 0.253768 0 
0.660861 0.217816 0 
0.664358 0.243569 0 
0.643895 0.278571 0 
0.648879 0.303641 0 
0.667891 0.268897 0 
0.672393 0.294364 0 
0.65269 0.114827 0 
0.663431 0.136935 0 
0.676804 0.104882 0 
0.68726 0.128275 0 
0.673276 0.16101 0 
0.680548 0.186032 0 
0.697029 0.154368 0 
0.70417 0.181452 0 
0.684826 0.21204 0 
0.688508 0.237916 0 
0.708772 0.208354 0 
0.712762 0.234367 0 
0.691678 0.263232 0 
0.695338 0.288557 0 
0.715776 0.259591 0 
0.718784 0.284696 0 
CELLS 64 128
1 0
1 1
1 2
1 3
1 4
1 5
1 6
1 7
1 8
1 9
1 10
1 11
1 12
1 13
1 14
1 15
1 16
1 17
1 18
1 19
1 20
1 21
1 22
1 23
1 24
1 25
1 26
1 27
1 28
1 29
1 30
1 31
1 32
1 33
1 34
1 35
1 36
1 37
1 38
1 39
1 40
1 41
1 42
1 43
1 44
1 45
1 46
1 47
1 48
1 49
1 50
1 51
1 52
1 53
1 54
1 55
1 56
1 57
1 58
1 59
1 60
1 61
1 62
1 63
CELL_TYPES 64
1
1
1
1
1
1
1
1
1
1
1
1
1
1
1
1
1
1
1
1
1
1
1
1
1
1
1
1
1
1
1
1
1
1
1
1
1
1
1
1
1
1
1
1
1
1
1
1
1
1
1
1
1
1
1
1
1
1
1
1
1
1
1
1
POINT_DATA 64
VECTORS displacement double
0.00272278 -0.42093 0 
0.0114991 -0.427543 0 
0.000519905 -0.430289 0 
0.0111555 -0.436825 0 
0.0162533 -0.433836 0 
0.0197951 -0.439546 0 
0.0175456 -0.442115 0 
0.0212228 -0.446051 0 
0.0230165 -0.443808 0 
0.026348 -0.446579 0 
0.0247438 -0.448996 0 
0.0275431 -0.451666 0 
0.0299866 -0.448356 0 
0.0345446 -0.449341 0 
0.0305318 -0.453597 0 
0.0348473 -0.454837 0 
-0.0018339 -0.443065 0 
0.00890411 -0.449131 0 
-0.00353386 -0.460127 0 
0.0063881 -0.463581 0 
0.0174509 -0.454474 0 
0.0214208 -0.45767 0 
0.0162461 -0.467668 0 
0.0212684 -0.470474 0 
0.0251916 -0.459712 0 
0.0283525 -0.461498 0 
0.024946 -0.471945 0 
0.0283357 -0.472806 0 
0.0315959 -0.462751 0 
0.0361198 -0.463787 0 
0.0320008 -0.473359 0 
0.0369789 -0.473721 0 
-0.00561462 -0.474923 0 
0.0040854 -0.477635 0 
-0.0083079 -0.487785 0 
0.00230923 -0.490713 0 
0.014113 -0.480662 0 
0.0206516 -0.483139 0 
0.0122807 -0.493109 0 
0.0193723 -0.494991 0 
0.0243848 -0.483654 0 
0.0277614 -0.483732 0 
0.023361 -0.494684 0 
0.0268583 -0.493931 0 
0.0313951 -0.483929 0 
0.0363786 -0.483859 0 
0.0303913 -0.493603 0 
0.0348925 -0.493136 0 
-0.0098101 -0.497673 0 
0.000930724 -0.500565 0 
-0.0106961 -0.507618 0 
-0.000240034 -0.509225 0 
0.010776 -0.50149 0 
0.0180483 -0.501468 0 
0.0095294 -0.508132 0 
0.0166699 -0.506048 0 
0.0223264 -0.50046 0 
0.0260076 -0.499584 0 
0.0212721 -0.504146 0 
0.0252624 -0.503133 0 
0.0291775 -0.499268 0 
0.0328378 -0.498943 0 
0.0282757 -0.502909 0 
0.0312839 -0.502804 0 
VECTORS velocity double
-0.153323 1.33682 0 
1.72985 1.42564 0 
-0.626074 1.18015 0 
1.281 0.976888 0 
2.24106 1.58157 0 
2.33604 1.80954 0 
1.91809 1.21552 0 
1.97699 1.58778 0 
2.48481 1.89778 0 
2.8094 1.9233 0 
2.07659 1.81879 0 
2.33665 1.75538 0 
3.1946 2.15531 0 
3.97262 2.20367 0 
2.69866 1.77995 0 
3.65429 1.65728 0 
-0.565162 0.789527 0 
0.637173 0.522366 0 
-0.688344 0.0566161 0 
0.0917701 0.120938 0 
1.28282 0.690915 0 
1.5217 0.967459 0 
0.627724 0.355876 0 
0.936314 0.45971 0 
1.73042 1.16342 0 
2.05815 1.2389 0 
1.2803 0.481824 0 
1.66154 0.529773 0 
2.49963 1.39389 0 
3.75648 1.06746 0 
2.2351 0.864664 0 
3.73725 0.655157 0 
-1.20625 0.246782 0 
-0.238837 0.10945 0 
-1.68301 0.874964 0 
-0.487516 0.347013 0 
0.24549 0.232188 0 
0.425617 0.404058 0 
-0.0939357 0.140662 0 
0.00952709 0.0891064 0 
0.937701 0.473543 0 
1.38775 0.410897 0 
0.569228 0.18936 0 
1.22126 0.16232 0 
1.88183 0.491414 0 
3.164 0.304709 0 
1.72684 0.0886751 0 
2.64238 -0.0258963 0 
-1.6238 0.457637 0 
-0.686921 -0.187976 0 
-2.06949 -1.06712 0 
-1.27292 -1.07376 0 
-0.218396 -0.233703 0 
-0.0163651 -0.254772 0 
-0.643358 -0.582348 0 
-0.278384 -0.436766 0 
0.474025 -0.197599 0 
1.10374 -0.286568 0 
0.328815 -0.421513 0 
0.977524 -0.537487 0 
1.606 -0.352141 0 
2.35654 -0.354843 0 
1.47629 -0.645785 0 
2.13326 -0.656652 0 
SCALARS mass double 1
LOOKUP_TABLE default
0.625
0.625
0.625
0.625
0.625
0.625
0.625
0.625
0.625
0.625
0.625
0.625
0.625
0.625
0.625
0.625
0.625
0.625
0.625
0.625
0.625
0.625
0.625
0.625
0.625
0.625
0.625
0.625
0.625
0.625
0.625
0.625
0.625
0.625
0.625
0.625
0.625
0.625
0.625
0.625
0.625
0.625
0.625
0.625
0.625
0.625
0.625
0.625
0.625
0.625
0.625
0.625
0.625
0.625
0.625
0.625
0.625
0.625
0.625
0.625
0.625
0.625
0.625
0.625
SCALARS volume double 1
LOOKUP_TABLE default
0.00050112
0.00054299
0.000505128
0.000543848
0.000523711
0.00055247
0.000566317
0.000590778
0.000603463
0.000606625
0.000614053
0.000609349
0.000622195
0.000628528
0.000634768
0.000649675
0.000605893
0.000578681
0.00067793
0.000630707
0.000579458
0.000600081
0.000588496
0.000622636
0.00062574
0.000616633
0.00065322
0.000639551
0.000664047
0.000674132
0.000663265
0.000652342
0.000608797
0.000655973
0.00063912
0.000662142
0.000601548
0.000622075
0.000633289
0.000630561
0.000636813
0.000625108
0.000658289
0.000648946
0.000642596
0.00064546
0.000636403
0.000629079
0.000621778
0.000633375
0.000644802
0.000664423
0.000639809
0.000627888
0.000685822
0.000667855
0.000636359
0.000633404
0.000647092
0.00064108
0.000614058
0.00060054
0.000621441
0.000617195
VECTORS momentum double
-0.0958268 0.835513 0 
1.08116 0.891026 0 
-0.391296 0.737595 0 
0.800623 0.610555 0 
1.40066 0.988479 0 
1.46003 1.13096 0 
1.19881 0.759703 0 
1.23562 0.992361 0 
1.55301 1.18611 0 
1.75587 1.20206 0 
1.29787 1.13675 0 
1.46041 1.09711 0 
1.99662 1.34707 0 
2.48289 1.3773 0 
1.68666 1.11247 0 
2.28393 1.0358 0 
-0.353226 0.493454 0 
0.398233 0.326479 0 
-0.430215 0.0353851 0 
0.0573563 0.075586 0 
0.801761 0.431822 0 
0.951061 0.604662 0 
0.392328 0.222422 0 
0.585196 0.287319 0 
1.08151 0.727136 0 
1.28635 0.774312 0 
0.80019 0.30114 0 
1.03846 0.331108 0 
1.56227 0.871184 0 
2.3478 0.667162 0 
1.39694 0.540415 0 
2.33578 0.409473 0 
-0.753908 0.154239 0 
-0.149273 0.0684063 0 
-1.05188 0.546853 0 
-0.304698 0.216883 0 
0.153432 0.145118 0 
0.266011 0.252536 0 
-0.0587098 0.0879138 0 
0.00595443 0.0556915 0 
0.586063 0.295964 0 
0.867342 0.256811 0 
0.355767 0.11835 0 
0.763287 0.10145 0 
1.17614 0.307134 0 
1.9775 0.190443 0 
1.07928 0.055422 0 
1.65149 -0.0161852 0 
-1.01488 0.286023 0 
-0.429325 -0.117485 0 
-1.29343 -0.666951 0 
-0.795573 -0.671101 0 
-0.136498 -0.146064 0 
-0.0102282 -0.159232 0 
-0.402099 -0.363967 0 
-0.17399 -0.272979 0 
0.296266 -0.123499 0 
0.689836 -0.179105 0 
0.205509 -0.263446 0 
0.610953 -0.335929 0 
1.00375 -0.220088 0 
1.47284 -0.221777 0 
0.92268 -0.403616 0 
1.33329 -0.410407 0 
VECTORS body_force double
0 -9.81 0 
0 -9.81 0 
0 -9.81 0 
0 -9.81 0 
0 -9.81 0 
0 -9.81 0 
0 -9.81 0 
0 -9.81 0 
0 -9.81 0 
0 -9.81 0 
0 -9.81 0 
0 -9.81 0 
0 -9.81 0 
0 -9.81 0 
0 -9.81 0 
0 -9.81 0 
0 -9.81 0 
0 -9.81 0 
0 -9.81 0 
0 -9.81 0 
0 -9.81 0 
0 -9.81 0 
0 -9.81 0 
0 -9.81 0 
0 -9.81 0 
0 -9.81 0 
0 -9.81 0 
0 -9.81 0 
0 -9.81 0 
0 -9.81 0 
0 -9.81 0 
0 -9.81 0 
0 -9.81 0 
0 -9.81 0 
0 -9.81 0 
0 -9.81 0 
0 -9.81 0 
0 -9.81 0 
0 -9.81 0 
0 -9.81 0 
0 -9.81 0 
0 -9.81 0 
0 -9.81 0 
0 -9.81 0 
0 -9.81 0 
0 -9.81 0 
0 -9.81 0 
0 -9.81 0 
0 -9.81 0 
0 -9.81 0 
0 -9.81 0 
0 -9.81 0 
0 -9.81 0 
0 -9.81 0 
0 -9.81 0 
0 -9.81 0 
0 -9.81 0 
0 -9.81 0 
0 -9.81 0 
0 -9.81 0 
0 -9.81 0 
0 -9.81 0 
0 -9.81 0 
0 -9.81 0 
TENSORS cauchy_stress double
-13322.7 -3459.61 0
-3459.61 -29159.2 0
0 0 0

-5511.27 -6530.25 0
-6530.25 -21539 0
0 0 0

-13230.4 -1974.34 0
-1974.34 -27719.7 0
0 0 0

-5920.97 -1703.56 0
-1703.56 -20825.6 0
0 0 0

-6128.3 -9876.79 0
-9876.79 -27874.1 0
0 0 0

-1990.06 -5736.43 0
-5736.43 -21731.7 0
0 0 0

-3557.67 -10883 0
-10883 -15403.5 0
0 0 0

-219.8 -7950.45 0
-7950.45 -10609.2 0
0 0 0

3945.68 -3541.23 0
-3541.23 -10689.2 0
0 0 0

2306.32 -2586.38 0
-2586.38 -8044.92 0
0 0 0

3276.11 -7018.08 0
-7018.08 -6674.14 0
0 0 0

2356.43 -7007.58 0
-7007.58 -7233.35 0
0 0 0

1737.33 -1288.99 0
-1288.99 -2602.5 0
0 0 0

1891.59 98.8683 0
98.8683 -808.96 0
0 0 0

4062.29 -5597.98 0
-5597.98 -1080.03 0
0 0 0

5800.04 -3689.31 0
-3689.31 1646.35 0
0 0 0

-2972.5 -12029 0
-12029 -2998.45 0
0 0 0

-5854.55 -7322.98 0
-7322.98 -8953.25 0
0 0 0

4667.48 -11263.3 0
-11263.3 10965.6 0
0 0 0

-651.986 -6756.04 0
-6756.04 2400.02 0
0 0 0

-7301.7 -15336.4 0
-15336.4 -7248.13 0
0 0 0

-4917.81 -15027.1 0
-15027.1 -2906.51 0
0 0 0

-5488.9 -7602.46 0
-7602.46 -6084.5 0
0 0 0

-940.539 -13638.8 0
-13638.8 211.794 0
0 0 0

-2499.18 -13344.7 0
-13344.7 2726.82 0
0 0 0

-1829.86 -13309.2 0
-13309.2 -761.909 0
0 0 0

2513.53 -12113.3 0
-12113.3 5979.26 0
0 0 0

621.449 -11642.3 0
-11642.3 3804.4 0
0 0 0

5241.35 -10588.4 0
-10588.4 6412.75 0
0 0 0

9073.16 -7383.95 0
-7383.95 5479.52 0
0 0 0

3060.6 -9684.82 0
-9684.82 8366.78 0
0 0 0

4578.06 -6043.56 0
-6043.56 3656.16 0
0 0 0

-5649.67 -6066.45 0
-6066.45 598.306 0
0 0 0

2107.14 -3919.23 0
-3919.23 7194.33 0
0 0 0

1315.44 -1010.57 0
-1010.57 2980.88 0
0 0 0

5501.39 -3654.4 0
-3654.4 5600.21 0
0 0 0

-4915.48 -6250.06 0
-6250.06 -2439.52 0
0 0 0

-4882.5 -13159.4 0
-13159.4 3980.33 0
0 0 0

915.686 -4344.04 0
-4344.04 1617.87 0
0 0 0

-1486.38 -7292.93 0
-7292.93 3189.87 0
0 0 0

-3158.99 -11214.4 0
-11214.4 6759.77 0
0 0 0

-3976.9 -10784.2 0
-10784.2 4010.22 0
0 0 0

662.671 -7547.53 0
-7547.53 9316.62 0
0 0 0

-245.36 -7422.33 0
-7422.33 7475.67 0
0 0 0

-1453.4 -8952.78 0
-8952.78 6792.79 0
0 0 0

735.482 -4747.76 0
-4747.76 5459 0
0 0 0

-2084.32 -6118.99 0
-6118.99 5561.42 0
0 0 0

-3567.77 -2713.76 0
-2713.76 4818.77 0
0 0 0

4278.23 551.135 0
551.135 -5272.05 0
0 0 0

3626.29 2238.9 0
2238.9 -1066.38 0
0 0 0

5215.98 -828.918 0
-828.918 782.565 0
0 0 0

6232.93 2776.55 0
2776.55 5530.08 0
0 0 0

1723.84 3424.91 0
3424.91 2779.64 0
0 0 0

-2535.82 1423.73 0
1423.73 3422.54 0
0 0 0

5849.05 5532.74 0
5532.74 12010 0
0 0 0

1743.82 4596.11 0
4596.11 11009.9 0
0 0 0

-1692.9 -43.1735 0
-43.1735 5156.65 0
0 0 0

-1297.73 -689.902 0
-689.902 3866.47 0
0 0 0

534.373 3204.18 0
3204.18 6145.69 0
0 0 0

930.346 2969.15 0
2969.15 3954.83 0
0 0 0

-4240.83 -1673.73 0
-1673.73 844.236 0
0 0 0

-7494.33 106.293 0
106.293 -183.107 0
0 0 0

-1165.71 806.564 0
806.564 67.6123 0
0 0 0

-2407.69 2144.9 0
2144.9 -8.99789 0
0 0 0

TENSORS velocity_gradient double
4.14145 31.6011 0
-7.9541 6.59365 0
0 0 0

1.24589 26.168 0
-7.36476 8.85182 0
0 0 0

5.8435 27.3158 0
-7.97699 6.65127 0
0 0 0

-0.263271 24.4781 0
-9.01149 8.30389 0
0 0 0

-1.09383 25.6296 0
-6.14812 9.13178 0
0 0 0

-3.34938 22.9746 0
-4.98787 8.43736 0
0 0 0

-6.20856 22.5474 0
-11.5327 10.2601 0
0 0 0

-9.33225 22.2429 0
-14.0011 10.2331 0
0 0 0

-4.0571 14.236 0
-4.77335 4.96987 0
0 0 0

-4.17389 14.2201 0
-4.92947 4.94851 0
0 0 0

-8.27657 15.6361 0
-14.2385 5.1297 0
0 0 0

-4.97624 16.0015 0
-13.62 5.19819 0
0 0 0

-3.80818 17.0176 0
-5.18215 2.72342 0
0 0 0

-2.97936 17.1615 0
-5.52625 2.66367 0
0 0 0

-2.23693 18.2255 0
-13.6988 1.4989 0
0 0 0

-0.912444 18.4419 0
-15.3864 1.22318 0
0 0 0

-4.28585 24.2879 0
-10.498 6.28092 0
0 0 0

-5.56336 23.5904 0
-11.221 5.88618 0
0 0 0

-3.14682 22.2569 0
-9.53315 2.99802 0
0 0 0

-4.61138 22.0436 0
-10.6684 5.01049 0
0 0 0

-6.92872 20.6235 0
-12.111 8.95968 0
0 0 0

-8.51481 20.3633 0
-13.3582 8.75503 0
0 0 0

-6.45489 21.293 0
-6.06213 4.68974 0
0 0 0

-6.42549 19.3649 0
-6.70485 6.77143 0
0 0 0

-9.30143 19.7059 0
-14.3315 6.82924 0
0 0 0

-6.37355 19.8771 0
-13.8818 5.92451 0
0 0 0

-5.59362 19.4802 0
-9.62629 6.36664 0
0 0 0

-4.57052 22.2299 0
-12.4875 4.63533 0
0 0 0

-3.0843 20.0617 0
-13.4589 3.57991 0
0 0 0

-1.28381 19.9528 0
-15.1252 -0.619331 0
0 0 0

-3.40902 22.3791 0
-15.2863 4.27562 0
0 0 0

-1.5674 22.2992 0
-17.0121 -1.61491 0
0 0 0

-2.78252 19.8318 0
-3.53849 -3.44674 0
0 0 0

-4.23718 20.4637 0
-2.24526 3.76951 0
0 0 0

-1.98352 18.4189 0
-5.42131 -0.117268 0
0 0 0

-3.37354 18.0249 0
-2.46568 1.61715 0
0 0 0

-5.74437 19.8014 0
-3.54928 3.19648 0
0 0 0

-6.75294 20.093 0
-5.22241 3.52693 0
0 0 0

-2.88766 18.3572 0
-7.42941 2.14361 0
0 0 0

-1.20761 18.0937 0
-10.8404 2.14001 0
0 0 0

-6.00002 20.3621 0
-8.19907 3.26938 0
0 0 0

-5.05767 22.7249 0
-11.2567 2.05128 0
0 0 0

-0.889687 21.1073 0
-11.4243 0.948651 0
0 0 0

-0.273099 21.178 0
-12.8405 0.786288 0
0 0 0

-3.89385 23.5566 0
-14.118 1.43828 0
0 0 0

-3.22931 24.3563 0
-15.8619 -1.41665 0
0 0 0

-2.5229 21.881 0
-13.2512 0.457842 0
0 0 0

-5.75343 21.5367 0
-13.2944 0.396695 0
0 0 0

-4.03291 17.8351 0
-14.7897 3.15233 0
0 0 0

-2.10599 18.8147 0
-14.3293 4.27233 0
0 0 0

-5.70617 19.707 0
-17.3762 6.12935 0
0 0 0

-3.05077 21.5668 0
-15.1803 6.75136 0
0 0 0

-0.777229 17.8596 0
-12.4272 3.00313 0
0 0 0

-1.12218 17.7654 0
-11.1554 3.35043 0
0 0 0

-1.43714 18.1447 0
-11.4329 4.27614 0
0 0 0

-1.00133 17.969 0
-10.236 4.06308 0
0 0 0

-1.02134 21.6841 0
-11.122 -0.376225 0
0 0 0

-0.40099 21.7588 0
-12.5467 -0.547718 0
0 0 0

0.600311 22.0665 0
-10.3745 -0.833456 0
0 0 0

0.621023 22.0692 0
-9.10484 -0.667208 0
0 0 0

-1.83862 18.8157 0
-13.2368 0.393401 0
0 0 0

-5.08447 18.4061 0
-13.3051 0.384791 0
0 0 0

-0.372024 16.1216 0
-8.24827 0.532333 0
0 0 0

-2.87992 15.8609 0
-7.95652 0.562664 0
0 0 0

SCALARS active double 1
LOOKUP_TABLE default
1
1
1
1
1
1
1
1
1
1
1
1
1
1
1
1
1
1
1
1
1
1
1
1
1
1
1
1
1
1
1
1
1
1
1
1
1
1
1
1
1
1
1
1
1
1
1
1
1
1
1
1
1
1
1
1
1
1
1
1
1
1
1
1
SCALARS extent double 1
LOOKUP_TABLE default
0.0125
0.0125
0.0125
0.0125
0.0125
0.0125
0.0125
0.0125
0.0125
0.0125
0.0125
0.0125
0.0125
0.0125
0.0125
0.0125
0.0125
0.0125
0.0125
0.0125
0.0125
0.0125
0.0125
0.0125
0.0125
0.0125
0.0125
0.0125
0.0125
0.0125
0.0125
0.0125
0.0125
0.0125
0.0125
0.0125
0.0125
0.0125
0.0125
0.0125
0.0125
0.0125
0.0125
0.0125
0.0125
0.0125
0.0125
0.0125
0.0125
0.0125
0.0125
0.0125
0.0125
0.0125
0.0125
0.0125
0.0125
0.0125
0.0125
0.0125
0.0125
0.0125
0.0125
0.0125
SCALARS pressure double 1
LOOKUP_TABLE default
21241
13525.1
20475
13373.3
17001.2
11860.9
9480.59
5414.52
3371.78
2869.3
1699.01
2438.46
432.583
-541.317
-1491.13
-3723.2
2985.47
7403.9
-7816.56
-874.016
7274.91
3912.16
5786.7
364.373
-113.817
1295.88
-4246.39
-2212.92
-5827.05
-7276.34
-5713.69
-4117.11
2525.68
-4650.74
-2148.16
-5550.8
3677.5
451.082
-1266.78
-851.746
-1800.39
-16.6574
-4989.64
-3615.16
-2669.7
-3097.24
-1738.55
-625.499
496.909
-1279.95
-2999.27
-5881.5
-2251.74
-443.36
-8929.5
-6376.86
-1731.88
-1284.37
-3340.03
-2442.59
1698.3
3838.72
549.051
1208.34
SCALARS density double 1
LOOKUP_TABLE default
1247.21
1151.03
1237.31
1149.22
1193.41
1131.28
1103.62
1057.93
1035.69
1030.29
1017.83
1025.68
1004.51
994.386
984.612
962.019
1031.54
1080.04
921.924
990.951
1078.59
1041.53
1062.03
1003.8
998.817
1013.57
956.798
977.248
941.198
927.118
942.309
958.086
1026.62
952.783
977.907
943.906
1038.99
1004.7
986.912
991.181
981.45
999.827
949.431
963.1
972.617
968.302
982.082
993.516
1005.18
986.777
969.289
940.666
976.854
995.4
911.315
935.832
982.15
986.731
965.86
974.917
1017.82
1040.73
1005.73
1012.65
