# vtk DataFile Version 3.0
Frame: 45, Time: 0.767
ASCII
DATASET UNSTRUCTURED_GRID
POINTS 64 double
0.616349 0.266232 0 
0.618152 0.240459 0 
0.588439 0.262301 0 
0.591245 0.235139 0 
0.620711 0.215233 0 
0.625158 0.188072 0 
0.59598 0.210325 0 
0.599922 0.182796 0 
0.629923 0.161103 0 
0.632141 0.134658 0 
0.604118 0.156248 0 
0.607967 0.13044 0 
0.635962 0.108602 0 
0.639136 0.0830892 0 
0.611051 0.105231 0 
0.614291 0.0788619 0 
0.564687 0.25869 0 
0.566109 0.23173 0 
0.53933 0.257325 0 
0.541549 0.229156 0 
0.570603 0.206269 0 
0.574983 0.180373 0 
0.545299 0.204212 0 
0.549905 0.177503 0 
0.579046 0.153957 0 
0.583013 0.129046 0 
0.554693 0.150842 0 
0.558004 0.125276 0 
0.586937 0.103246 0 
0.589441 0.0767657 0 
0.562021 0.0997231 0 
0.56518 0.0736921 0 
0.513885 0.253351 0 
0.514782 0.22736 0 
0.487372 0.248881 0 
0.489437 0.223336 0 
0.520198 0.202256 0 
0.524259 0.175291 0 
0.494336 0.1971 0 
0.499902 0.171116 0 
0.528641 0.14883 0 
0.532874 0.12263 0 
0.503592 0.145825 0 
0.508697 0.120961 0 
0.536244 0.0969242 0 
0.539358 0.0711908 0 
0.511404 0.0949374 0 
0.514454 0.0684102 0 
0.461704 0.243478 0 
0.464592 0.218259 0 
0.435936 0.239702 0 
0.439151 0.21329 0 
0.470133 0.192304 0 
0.475061 0.166353 0 
0.445428 0.187029 0 
0.448903 0.161647 0 
0.479805 0.141033 0 
0.484528 0.115893 0 
0.453274 0.13661 0 
0.458407 0.110745 0 
0.487962 0.089191 0 
0.491477 0.0634303 0 
0.461705 0.0852174 0 
0.467009 0.0592899 0 
CELLS 64 128
1 0
1 1
1 2
1 3
1 4
1 5
1 6
1 7
1 8
1 9
1 10
1 11
1 12
1 13
1 14
1 15
1 16
1 17
1 18
1 19
1 20
1 21
1 22
1 23
1 24
1 25
1 26
1 27
1 28
1 29
1 30
1 31
1 32
1 33
1 34
1 35
1 36
1 37
1 38
1 39
1 40
1 41
1 42
1 43
1 44
1 45
1 46
1 47
1 48
1 49
1 50
1 51
1 52
1 53
1 54
1 55
1 56
1 57
1 58
1 59
1 60
1 61
1 62
1 63
CELL_TYPES 64
1
1
1
1
1
1
1
1
1
1
1
1
1
1
1
1
1
1
1
1
1
1
1
1
1
1
1
1
1
1
1
1
1
1
1
1
1
1
1
1
1
1
1
1
1
1
1
1
1
1
1
1
1
1
1
1
1
1
1
1
1
1
1
1
POINT_DATA 64
VECTORS displacement double
0.103849 -0.346268 0 
0.105652 -0.397041 0 
0.0509387 -0.350199 0 
0.0537445 -0.402361 0 
0.108211 -0.447267 0 
0.112658 -0.499428 0 
0.0584802 -0.452175 0 
0.0624216 -0.504704 0 
0.117423 -0.551397 0 
0.119641 -0.602842 0 
0.0666178 -0.556252 0 
0.0704665 -0.60706 0 
0.123462 -0.653898 0 
0.126636 -0.704411 0 
0.0735506 -0.657269 0 
0.0767909 -0.708638 0 
0.00218706 -0.35381 0 
0.00360903 -0.40577 0 
-0.0481701 -0.355175 0 
-0.0459513 -0.408344 0 
0.00810288 -0.456231 0 
0.0124834 -0.507127 0 
-0.0422011 -0.458288 0 
-0.037595 -0.509997 0 
0.0165461 -0.558543 0 
0.0205129 -0.608454 0 
-0.0328069 -0.561658 0 
-0.0294961 -0.612224 0 
0.0244374 -0.659254 0 
0.0269415 -0.710734 0 
-0.0254793 -0.662777 0 
-0.0223197 -0.713808 0 
-0.0986151 -0.359149 0 
-0.0977182 -0.41014 0 
-0.150128 -0.363619 0 
-0.148063 -0.414164 0 
-0.092302 -0.460244 0 
-0.0882411 -0.512209 0 
-0.143164 -0.4654 0 
-0.137598 -0.516384 0 
-0.0838593 -0.56367 0 
-0.0796262 -0.61487 0 
-0.133908 -0.566675 0 
-0.128803 -0.616539 0 
-0.0762563 -0.665576 0 
-0.0731421 -0.716309 0 
-0.126096 -0.667563 0 
-0.123046 -0.71909 0 
-0.200796 -0.369022 0 
-0.197908 -0.419241 0 
-0.251564 -0.372798 0 
-0.248349 -0.42421 0 
-0.192367 -0.470196 0 
-0.187439 -0.521147 0 
-0.242072 -0.475471 0 
-0.238597 -0.525853 0 
-0.182695 -0.571467 0 
-0.177972 -0.621607 0 
-0.234226 -0.57589 0 
-0.229093 -0.626755 0 
-0.174538 -0.673309 0 
-0.171023 -0.72407 0 
-0.225795 -0.677283 0 
-0.220491 -0.72821 0 
VECTORS velocity double
-2.10851 1.60361 0 
-1.58535 1.89751 0 
-2.31365 1.24947 0 
-1.74863 1.26596 0 
-1.90451 1.84062 0 
-2.01836 2.51455 0 
-1.76468 1.13138 0 
-1.52707 1.49259 0 
-1.13048 2.35864 0 
-0.321225 1.70783 0 
-1.18033 2.06198 0 
-0.900431 1.28785 0 
-0.842551 2.80918 0 
-0.167897 2.42401 0 
-0.692784 2.1029 0 
-0.141413 2.05063 0 
-2.18738 1.10053 0 
-1.39156 0.846545 0 
-2.45018 1.4026 0 
-1.88267 1.36123 0 
-1.89237 1.36022 0 
-1.35437 1.3891 0 
-2.03343 1.36668 0 
-1.49872 1.75416 0 
-1.08847 1.79636 0 
-0.980392 1.767 0 
-1.22616 1.71588 0 
-1.19407 1.49167 0 
-0.973443 2.21974 0 
-0.664629 2.20917 0 
-1.15523 2.37034 0 
-0.858909 2.23145 0 
-2.5568 0.33465 0 
-1.67803 0.656354 0 
-2.75362 0.173192 0 
-1.85358 0.216351 0 
-1.55699 0.319312 0 
-1.19985 0.57369 0 
-1.90505 0.565373 0 
-1.9387 0.730853 0 
-0.762652 0.626751 0 
-1.04372 0.617549 0 
-1.64171 0.256614 0 
-1.38147 0.802598 0 
-1.18987 0.918032 0 
-0.281133 1.15618 0 
-1.38575 1.05087 0 
-0.455103 0.880924 0 
-2.67598 0.088098 0 
-1.78221 0.0831743 0 
-2.61082 -1.15296 0 
-1.84679 -0.862561 0 
-1.42152 0.347252 0 
-1.36498 0.793526 0 
-1.7861 -0.903046 0 
-1.66889 -0.521107 0 
-0.790401 0.90104 0 
-0.896376 1.03798 0 
-1.33798 -0.271917 0 
-1.52255 -0.240578 0 
-1.06857 0.80459 0 
-0.620581 0.962439 0 
-1.05875 0.0323581 0 
-0.521592 -0.205108 0 
SCALARS mass double 1
LOOKUP_TABLE default
0.625
0.625
0.625
0.625
0.625
0.625
0.625
0.625
0.625
0.625
0.625
0.625
0.625
0.625
0.625
0.625
0.625
0.625
0.625
0.625
0.625
0.625
0.625
0.625
0.625
0.625
0.625
0.625
0.625
0.625
0.625
0.625
0.625
0.625
0.625
0.625
0.625
0.625
0.625
0.625
0.625
0.625
0.625
0.625
0.625
0.625
0.625
0.625
0.625
0.625
0.625
0.625
0.625
0.625
0.625
0.625
0.625
0.625
0.625
0.625
0.625
0.625
0.625
0.625
SCALARS volume double 1
LOOKUP_TABLE default
0.000629593
0.000616695
0.000629443
0.000647293
0.000639639
0.00065409
0.000616987
0.00063345
0.000649351
0.00061696
0.000644189
0.000607109
0.000622058
0.000621605
0.000609015
0.00062917
0.000619716
0.000637566
0.000639224
0.000643872
0.000624873
0.00065019
0.000651405
0.000635848
0.000609302
0.00061534
0.000638773
0.00063484
0.000603489
0.00060831
0.000611669
0.000625903
0.000639039
0.000628896
0.000648065
0.000637603
0.000626678
0.000662181
0.000638828
0.000624755
0.000635244
0.000624726
0.000623875
0.00059417
0.00062049
0.00061501
0.000602736
0.000607351
0.000628901
0.000620959
0.000636768
0.000642891
0.000605208
0.000627268
0.000630664
0.000640776
0.000609288
0.000619399
0.000614142
0.000647237
0.000606723
0.000628366
0.000624137
0.000632443
VECTORS momentum double
-1.31782 1.00225 0 
-0.990842 1.18594 0 
-1.44603 0.780921 0 
-1.0929 0.791226 0 
-1.19032 1.15039 0 
-1.26147 1.57159 0 
-1.10293 0.707113 0 
-0.954416 0.932868 0 
-0.706548 1.47415 0 
-0.200766 1.0674 0 
-0.737707 1.28874 0 
-0.56277 0.804905 0 
-0.526595 1.75574 0 
-0.104936 1.51501 0 
-0.43299 1.31432 0 
-0.0883832 1.28164 0 
-1.36711 0.687832 0 
-0.869728 0.529091 0 
-1.53136 0.876623 0 
-1.17667 0.850768 0 
-1.18273 0.850141 0 
-0.846481 0.868186 0 
-1.27089 0.854173 0 
-0.936698 1.09635 0 
-0.680291 1.12272 0 
-0.612745 1.10437 0 
-0.766348 1.07242 0 
-0.746291 0.932294 0 
-0.608402 1.38734 0 
-0.415393 1.38073 0 
-0.722019 1.48146 0 
-0.536818 1.39465 0 
-1.598 0.209156 0 
-1.04877 0.410221 0 
-1.72101 0.108245 0 
-1.15848 0.135219 0 
-0.973116 0.19957 0 
-0.749903 0.358556 0 
-1.19066 0.353358 0 
-1.21169 0.456783 0 
-0.476658 0.391719 0 
-0.652324 0.385968 0 
-1.02607 0.160384 0 
-0.863419 0.501624 0 
-0.743668 0.57377 0 
-0.175708 0.722615 0 
-0.866093 0.656792 0 
-0.28444 0.550578 0 
-1.67249 0.0550612 0 
-1.11388 0.0519839 0 
-1.63176 -0.720598 0 
-1.15425 -0.5391 0 
-0.88845 0.217033 0 
-0.853112 0.495954 0 
-1.11631 -0.564404 0 
-1.04306 -0.325692 0 
-0.494 0.56315 0 
-0.560235 0.648738 0 
-0.83624 -0.169948 0 
-0.951595 -0.150361 0 
-0.667859 0.502868 0 
-0.387863 0.601524 0 
-0.661722 0.0202238 0 
-0.325995 -0.128192 0 
VECTORS body_force double
0 -9.81 0 
0 -9.81 0 
0 -9.81 0 
0 -9.81 0 
0 -9.81 0 
0 -9.81 0 
0 -9.81 0 
0 -9.81 0 
0 -9.81 0 
0 -9.81 0 
0 -9.81 0 
0 -9.81 0 
0 -9.81 0 
0 -9.81 0 
0 -9.81 0 
0 -9.81 0 
0 -9.81 0 
0 -9.81 0 
0 -9.81 0 
0 -9.81 0 
0 -9.81 0 
0 -9.81 0 
0 -9.81 0 
0 -9.81 0 
0 -9.81 0 
0 -9.81 0 
0 -9.81 0 
0 -9.81 0 
0 -9.81 0 
0 -9.81 0 
0 -9.81 0 
0 -9.81 0 
0 -9.81 0 
0 -9.81 0 
0 -9.81 0 
0 -9.81 0 
0 -9.81 0 
0 -9.81 0 
0 -9.81 0 
0 -9.81 0 
0 -9.81 0 
0 -9.81 0 
0 -9.81 0 
0 -9.81 0 
0 -9.81 0 
0 -9.81 0 
0 -9.81 0 
0 -9.81 0 
0 -9.81 0 
0 -9.81 0 
0 -9.81 0 
0 -9.81 0 
0 -9.81 0 
0 -9.81 0 
0 -9.81 0 
0 -9.81 0 
0 -9.81 0 
0 -9.81 0 
0 -9.81 0 
0 -9.81 0 
0 -9.81 0 
0 -9.81 0 
0 -9.81 0 
0 -9.81 0 
TENSORS cauchy_stress double
1281.53 1278.93 0
1278.93 126.465 0
0 0 0

-805.777 -8.23565 0
-8.23565 -1766.77 0
0 0 0

-1454.27 1817.3 0
1817.3 2816.43 0
0 0 0

2223.43 1918.4 0
1918.4 4516.52 0
0 0 0

139.163 -660.531 0
-660.531 4313.1 0
0 0 0

2290.19 -4654.93 0
-4654.93 6458.4 0
0 0 0

-2429.94 -162.987 0
-162.987 -51.4538 0
0 0 0

-1893.44 -2059.9 0
-2059.9 4476.14 0
0 0 0

1169.52 -1354.9 0
-1354.9 6180.9 0
0 0 0

-2895.66 292.602 0
292.602 405.796 0
0 0 0

1092.48 -1331.74 0
-1331.74 4723.09 0
0 0 0

-4491.5 641.495 0
641.495 -1093.7 0
0 0 0

-790.108 -1954.49 0
-1954.49 -117.343 0
0 0 0

-4536.5 2517.52 0
2517.52 3489.19 0
0 0 0

-2995.92 -561.939 0
-561.939 -1986.55 0
0 0 0

-510.973 -1775.83 0
-1775.83 1789.9 0
0 0 0

-144.101 816.493 0
816.493 -1488.73 0
0 0 0

-162.816 -1944.81 0
-1944.81 3991.06 0
0 0 0

-580.104 -249.036 0
-249.036 4907.59 0
0 0 0

3805.58 -2101.15 0
-2101.15 1915.11 0
0 0 0

283.257 -1453.64 0
-1453.64 -322.306 0
0 0 0

3750.31 -683.652 0
-683.652 3848.3 0
0 0 0

1350.71 -2058.08 0
-2058.08 6607.1 0
0 0 0

776.431 -4837.13 0
-4837.13 2532.71 0
0 0 0

-5296.07 -936.882 0
-936.882 404.23 0
0 0 0

-2699.44 -67.6057 0
-67.6057 -296.206 0
0 0 0

2844.51 -2892.77 0
-2892.77 1347.39 0
0 0 0

653.62 -2244.71 0
-2244.71 2350.5 0
0 0 0

-6234.11 413.246 0
413.246 -501.204 0
0 0 0

-6317.46 1037.58 0
1037.58 1112.23 0
0 0 0

-2519.12 -3143.93 0
-3143.93 -1627.05 0
0 0 0

-875.935 50.1051 0
50.1051 1153.57 0
0 0 0

6038.02 1380.49 0
1380.49 -1766.12 0
0 0 0

-421.852 282.006 0
282.006 1617.02 0
0 0 0

2681.82 1558.36 0
1558.36 4287.29 0
0 0 0

997.705 -791.153 0
-791.153 2841.65 0
0 0 0

1028.62 -4120.48 0
-4120.48 -512.923 0
0 0 0

449.42 -2239.99 0
-2239.99 10663.6 0
0 0 0

1220.91 -1788.94 0
-1788.94 2987.52 0
0 0 0

542.747 2193.77 0
2193.77 -618.265 0
0 0 0

893.861 -3473.29 0
-3473.29 2232.45 0
0 0 0

-3809.77 260.885 0
260.885 3725.59 0
0 0 0

-2073.78 11.3409 0
11.3409 1727.43 0
0 0 0

-6605.12 1776.83 0
1776.83 -3122.96 0
0 0 0

-924.908 584.144 0
584.144 -467.887 0
0 0 0

-2687.76 -593.91 0
-593.91 -410.773 0
0 0 0

-6310.79 -1629.3 0
-1629.3 -664.703 0
0 0 0

-8657.04 -844.046 0
-844.046 3148.3 0
0 0 0

1500.43 1058.77 0
1058.77 -303.734 0
0 0 0

139.259 1278.79 0
1278.79 -1386.55 0
0 0 0

653.653 325.825 0
325.825 2933.49 0
0 0 0

43.0168 -1154.34 0
-1154.34 5384.57 0
0 0 0

-5199.31 -506.469 0
-506.469 -989.05 0
0 0 0

-638.72 433.917 0
433.917 1335.21 0
0 0 0

408.613 33.5268 0
33.5268 1326.23 0
0 0 0

1642.13 1359.79 0
1359.79 3151.67 0
0 0 0

-2533.78 -145.9 0
-145.9 -2362.42 0
0 0 0

-3783.4 -59.047 0
-59.047 2052.3 0
0 0 0

-2824.16 4471.94 0
4471.94 -546.006 0
0 0 0

2457.26 2256.98 0
2256.98 4266.02 0
0 0 0

-4521.59 -22.6963 0
-22.6963 -1185.99 0
0 0 0

-3142.27 1412.25 0
1412.25 4175.09 0
0 0 0

182.286 3428.85 0
3428.85 -448.085 0
0 0 0

532.517 3002.31 0
3002.31 1744.09 0
0 0 0

TENSORS velocity_gradient double
1.24343 -7.94238 0
6.65063 -1.84392 0
0 0 0

0.604069 -3.11037 0
8.49622 -3.87146 0
0 0 0

3.50653 -7.66544 0
5.71409 -1.00385 0
0 0 0

2.45843 -5.10435 0
5.67725 -2.04927 0
0 0 0

-1.35902 -2.91803 0
10.6536 -4.08283 0
0 0 0

-0.639778 -13.8811 0
10.2831 -4.41759 0
0 0 0

0.0389741 -4.78143 0
7.67302 -2.2634 0
0 0 0

0.180755 -10.931 0
9.11884 -6.69521 0
0 0 0

2.83088 -14.4411 0
7.29411 -3.93532 0
0 0 0

4.65415 -8.72127 0
5.86864 -2.67128 0
0 0 0

3.15037 -10.668 0
7.15475 -6.17686 0
0 0 0

4.80912 -7.80821 0
5.76907 -3.25791 0
0 0 0

5.64487 -8.85664 0
5.23212 -2.58431 0
0 0 0

7.21148 -7.58013 0
4.61137 -2.35915 0
0 0 0

5.81644 -7.35704 0
5.15313 -3.149 0
0 0 0

7.4961 -5.87681 0
4.51141 -2.95736 0
0 0 0

3.50659 -7.66503 0
5.61223 -1.69706 0
0 0 0

2.24733 -6.72346 0
5.73448 -1.61036 0
0 0 0

4.63555 -7.77353 0
14.8873 -2.01867 0
0 0 0

2.73098 -8.42789 0
14.7863 -1.36332 0
0 0 0

0.648086 -6.83676 0
6.23498 -1.98688 0
0 0 0

0.474477 -10.2477 0
8.38621 -4.99349 0
0 0 0

0.793056 -8.57271 0
12.3956 -1.66884 0
0 0 0

0.942696 -9.91177 0
10.8514 -2.74185 0
0 0 0

0.860111 -8.89627 0
10.8553 -4.79622 0
0 0 0

2.58817 -6.17172 0
11.2282 -3.51949 0
0 0 0

1.04098 -6.71526 0
11.0846 -3.29863 0
0 0 0

2.87308 -4.14155 0
11.2184 -3.58929 0
0 0 0

4.3338 -6.16096 0
11.2471 -3.26838 0
0 0 0

3.11565 -5.51485 0
12.0223 -2.97636 0
0 0 0

4.3571 -6.33518 0
11.2986 -2.57434 0
0 0 0

2.92879 -7.13689 0
12.1184 -2.14171 0
0 0 0

4.46585 -8.82943 0
14.9059 -1.55201 0
0 0 0

2.61415 -10.6519 0
14.7718 -1.64017 0
0 0 0

2.12633 -10.4782 0
15.2598 -1.35558 0
0 0 0

2.12023 -12.0768 0
15.4198 -1.80072 0
0 0 0

0.837403 -9.5789 0
14.5121 -1.97626 0
0 0 0

1.73008 -8.73567 0
14.2485 -2.56989 0
0 0 0

1.82359 -8.50176 0
15.0405 -2.8007 0
0 0 0

2.00593 -7.58314 0
14.015 -2.92528 0
0 0 0

2.794 -5.54179 0
14.1086 -3.02042 0
0 0 0

2.29179 -3.80369 0
14.5233 -3.32897 0
0 0 0

2.75284 -4.87292 0
13.9376 -2.82847 0
0 0 0

2.25872 -4.40702 0
14.5469 -2.89821 0
0 0 0

1.72329 -7.64335 0
15.1426 -1.34591 0
0 0 0

1.44013 -8.30654 0
16.3441 -1.12305 0
0 0 0

1.69469 -8.5056 0
15.1954 0.130236 0
0 0 0

1.41534 -8.56641 0
16.4572 0.0626111 0
0 0 0

2.1899 -12.1696 0
15.388 -1.75841 0
0 0 0

2.10432 -12.1609 0
15.4271 -1.76238 0
0 0 0

0.35886 -11.6311 0
15.1448 -3.05072 0
0 0 0

1.68024 -11.7756 0
12.1812 -2.72663 0
0 0 0

2.06374 -7.31226 0
14.9947 -4.49025 0
0 0 0

2.13607 -7.32534 0
13.4426 -4.20951 0
0 0 0

2.01062 -7.39204 0
10.8636 -6.12134 0
0 0 0

1.71783 -7.34774 0
10.2964 -5.86718 0
0 0 0

2.07726 -4.8622 0
12.3472 -3.00105 0
0 0 0

1.79813 -4.81148 0
11.9734 -2.93311 0
0 0 0

2.0074 -5.08813 0
11.1298 -3.53357 0
0 0 0

1.74455 -5.09975 0
11.9017 -3.31919 0
0 0 0

1.13556 -9.2018 0
11.7014 0.745933 0
0 0 0

0.0219766 -9.06023 0
11.6003 0.758783 0
0 0 0

0.977291 -10.3364 0
11.687 0.642951 0
0 0 0

-0.144483 -10.1188 0
11.5852 0.662698 0
0 0 0

SCALARS active double 1
LOOKUP_TABLE default
1
1
1
1
1
1
1
1
1
1
1
1
1
1
1
1
1
1
1
1
1
1
1
1
1
1
1
1
1
1
1
1
1
1
1
1
1
1
1
1
1
1
1
1
1
1
1
1
1
1
1
1
1
1
1
1
1
1
1
1
1
1
1
1
SCALARS extent double 1
LOOKUP_TABLE default
0.0125
0.0125
0.0125
0.0125
0.0125
0.0125
0.0125
0.0125
0.0125
0.0125
0.0125
0.0125
0.0125
0.0125
0.0125
0.0125
0.0125
0.0125
0.0125
0.0125
0.0125
0.0125
0.0125
0.0125
0.0125
0.0125
0.0125
0.0125
0.0125
0.0125
0.0125
0.0125
0.0125
0.0125
0.0125
0.0125
0.0125
0.0125
0.0125
0.0125
0.0125
0.0125
0.0125
0.0125
0.0125
0.0125
0.0125
0.0125
0.0125
0.0125
0.0125
0.0125
0.0125
0.0125
0.0125
0.0125
0.0125
0.0125
0.0125
0.0125
0.0125
0.0125
0.0125
0.0125
SCALARS pressure double 1
LOOKUP_TABLE default
-703.998
1286.27
-681.079
-3369.97
-2226.13
-4374.29
1240.7
-1291.35
-3675.21
1244.93
-2907.78
2792.6
453.725
523.657
2491.23
-639.462
816.415
-1914.12
-2163.74
-2860.35
19.5244
-3799.3
-3978.91
-1654.57
2445.92
1497.82
-2095.95
-1502.06
3367.66
2602.62
2073.08
-138.816
-2135.95
-597.582
-3484.56
-1919.68
-257.849
-5556.5
-2104.22
37.7589
-1563.16
42.0896
173.175
4864.04
696.398
1549.27
3487.74
2754.37
-598.345
623.646
-1793.57
-2713.79
3094.18
-348.247
-867.423
-2396.9
2448.1
865.549
1685.08
-3361.64
2853.79
-516.411
132.9
-1138.3
SCALARS density double 1
LOOKUP_TABLE default
992.705
1013.47
992.942
965.559
977.114
955.527
1012.99
986.66
962.499
1013.03
970.212
1029.47
1004.73
1005.46
1026.25
993.372
1008.53
980.29
977.748
970.69
1000.2
961.258
959.464
982.94
1025.76
1015.7
978.438
984.5
1035.64
1027.44
1021.79
998.557
978.031
993.804
964.409
980.233
997.322
943.85
978.354
1000.39
983.875
1000.44
1001.8
1051.89
1007.27
1016.24
1036.94
1029.06
993.797
1006.51
981.52
972.171
1032.7
996.385
991.019
975.38
1025.79
1009.04
1017.68
965.643
1030.12
994.644
1001.38
988.231
