# vtk DataFile Version 3.0
Frame: 11, Time: 0.2
ASCII
DATASET UNSTRUCTURED_GRID
POINTS 64 double
0.5125 0.413347 0 
0.5125 0.438347 0 
0.5375 0.413347 0 
0.5375 0.438347 0 
0.5125 0.463347 0 
0.5125 0.488347 0 
0.5375 0.463347 0 
0.5375 0.488347 0 
0.5125 0.513347 0 
0.5125 0.538347 0 
0.5375 0.513347 0 
0.5375 0.538347 0 
0.5125 0.563347 0 
0.5125 0.588347 0 
0.5375 0.563347 0 
0.5375 0.588347 0 
0.5625 0.413347 0 
0.5625 0.438347 0 
0.5875 0.413347 0 
0.5875 0.438347 0 
0.5625 0.463347 0 
0.5625 0.488347 0 
0.5875 0.463347 0 
0.5875 0.488347 0 
0.5625 0.513347 0 
0.5625 0.538347 0 
0.5875 0.513347 0 
0.5875 0.538347 0 
0.5625 0.563347 0 
0.5625 0.588347 0 
0.5875 0.563347 0 
0.5875 0.588347 0 
0.6125 0.413347 0 
0.6125 0.438347 0 
0.6375 0.413347 0 
0.6375 0.438347 0 
0.6125 0.463347 0 
0.6125 0.488347 0 
0.6375 0.463347 0 
0.6375 0.488347 0 
0.6125 0.513347 0 
0.6125 0.538347 0 
0.6375 0.513347 0 
0.6375 0.538347 0 
0.6125 0.563347 0 
0.6125 0.588347 0 
0.6375 0.563347 0 
0.6375 0.588347 0 
0.6625 0.413347 0 
0.6625 0.438347 0 
0.6875 0.413347 0 
0.6875 0.438347 0 
0.6625 0.463347 0 
0.6625 0.488347 0 
0.6875 0.463347 0 
0.6875 0.488347 0 
0.6625 0.513347 0 
0.6625 0.538347 0 
0.6875 0.513347 0 
0.6875 0.538347 0 
0.6625 0.563347 0 
0.6625 0.588347 0 
0.6875 0.563347 0 
0.6875 0.588347 0 
CELLS 64 128
1 0
1 1
1 2
1 3
1 4
1 5
1 6
1 7
1 8
1 9
1 10
1 11
1 12
1 13
1 14
1 15
1 16
1 17
1 18
1 19
1 20
1 21
1 22
1 23
1 24
1 25
1 26
1 27
1 28
1 29
1 30
1 31
1 32
1 33
1 34
1 35
1 36
1 37
1 38
1 39
1 40
1 41
1 42
1 43
1 44
1 45
1 46
1 47
1 48
1 49
1 50
1 51
1 52
1 53
1 54
1 55
1 56
1 57
1 58
1 59
1 60
1 61
1 62
1 63
CELL_TYPES 64
1
1
1
1
1
1
1
1
1
1
1
1
1
1
1
1
1
1
1
1
1
1
1
1
1
1
1
1
1
1
1
1
1
1
1
1
1
1
1
1
1
1
1
1
1
1
1
1
1
1
1
1
1
1
1
1
1
1
1
1
1
1
1
1
POINT_DATA 64
VECTORS displacement double
-1.19661e-16 -0.199153 0 
-5.55071e-17 -0.199153 0 
-1.16284e-16 -0.199153 0 
-4.88594e-17 -0.199153 0 
1.47566e-17 -0.199153 0 
7.42434e-17 -0.199153 0 
2.62123e-17 -0.199153 0 
8.09562e-17 -0.199153 0 
1.47955e-16 -0.199153 0 
1.95822e-16 -0.199153 0 
1.36574e-16 -0.199153 0 
1.77333e-16 -0.199153 0 
2.03056e-16 -0.199153 0 
2.32327e-16 -0.199153 0 
1.96492e-16 -0.199153 0 
2.3327e-16 -0.199153 0 
-1.09502e-16 -0.199153 0 
-4.54589e-17 -0.199153 0 
-9.93133e-17 -0.199153 0 
-4.53058e-17 -0.199153 0 
2.50076e-17 -0.199153 0 
7.63738e-17 -0.199153 0 
1.11425e-17 -0.199153 0 
6.04963e-17 -0.199153 0 
1.21544e-16 -0.199153 0 
1.59321e-16 -0.199153 0 
1.02863e-16 -0.199153 0 
1.41786e-16 -0.199153 0 
1.8763e-16 -0.199153 0 
2.27836e-16 -0.199153 0 
1.7647e-16 -0.199153 0 
2.16024e-16 -0.199153 0 
-8.93417e-17 -0.199153 0 
-4.50198e-17 -0.199153 0 
-7.9587e-17 -0.199153 0 
-4.46011e-17 -0.199153 0 
-3.1807e-18 -0.199153 0 
4.36223e-17 -0.199153 0 
-1.79619e-17 -0.199153 0 
2.57517e-17 -0.199153 0 
8.36759e-17 -0.199153 0 
1.23156e-16 -0.199153 0 
6.39816e-17 -0.199153 0 
1.03431e-16 -0.199153 0 
1.64448e-16 -0.199153 0 
2.02423e-16 -0.199153 0 
1.51567e-16 -0.199153 0 
1.87032e-16 -0.199153 0 
-7.63256e-17 -0.199153 0 
-4.19617e-17 -0.199153 0 
-7.95574e-17 -0.199153 0 
-3.71016e-17 -0.199153 0 
-2.10095e-17 -0.199153 0 
1.77913e-17 -0.199153 0 
-1.23233e-17 -0.199153 0 
1.9741e-17 -0.199153 0 
4.68569e-17 -0.199153 0 
8.26119e-17 -0.199153 0 
3.23021e-17 -0.199153 0 
6.06994e-17 -0.199153 0 
1.40222e-16 -0.199153 0 
1.78253e-16 -0.199153 0 
1.30413e-16 -0.199153 0 
1.76087e-16 -0.199153 0 
VECTORS velocity double
1.6252e-14 -1.97181 0 
-4.70921e-15 -1.97181 0 
3.39247e-15 -1.97181 0 
-6.01672e-15 -1.97181 0 
-2.38006e-14 -1.97181 0 
-1.28375e-14 -1.97181 0 
-1.0487e-14 -1.97181 0 
-4.80257e-15 -1.97181 0 
8.48471e-15 -1.97181 0 
8.74474e-15 -1.97181 0 
4.73909e-15 -1.97181 0 
4.62213e-15 -1.97181 0 
-3.44414e-15 -1.97181 0 
-3.02192e-16 -1.97181 0 
3.68724e-16 -1.97181 0 
1.48484e-15 -1.97181 0 
-3.65301e-15 -1.97181 0 
-5.78324e-15 -1.97181 0 
-4.88445e-15 -1.97181 0 
-4.00879e-15 -1.97181 0 
-3.29059e-15 -1.97181 0 
-6.30511e-16 -1.97181 0 
-2.21126e-15 -1.97181 0 
-3.21318e-16 -1.97181 0 
2.38528e-15 -1.97181 0 
2.37137e-15 -1.97181 0 
1.42327e-15 -1.97181 0 
1.99245e-15 -1.97181 0 
2.01357e-15 -1.97181 0 
2.61194e-15 -1.97181 0 
1.49041e-15 -1.97181 0 
3.07913e-15 -1.97181 0 
-4.96466e-15 -1.97181 0 
-1.33236e-15 -1.97181 0 
-3.89363e-15 -1.97181 0 
2.24605e-15 -1.97181 0 
-6.87599e-16 -1.97181 0 
3.69176e-16 -1.97181 0 
1.28039e-15 -1.97181 0 
1.44097e-15 -1.97181 0 
7.10926e-16 -1.97181 0 
1.73706e-15 -1.97181 0 
2.48257e-16 -1.97181 0 
1.60523e-15 -1.97181 0 
1.456e-15 -1.97181 0 
3.20842e-15 -1.97181 0 
1.91036e-15 -1.97181 0 
2.99982e-15 -1.97181 0 
-8.76144e-15 -1.97181 0 
5.29918e-15 -1.97181 0 
-1.95681e-14 -1.97181 0 
7.82703e-15 -1.97181 0 
1.01149e-14 -1.97181 0 
5.96686e-15 -1.97181 0 
2.58161e-14 -1.97181 0 
1.39468e-14 -1.97181 0 
-2.26122e-15 -1.97181 0 
-8.0923e-16 -1.97181 0 
-6.8175e-15 -1.97181 0 
-5.5063e-15 -1.97181 0 
3.7806e-15 -1.97181 0 
3.5581e-15 -1.97181 0 
7.06674e-15 -1.97181 0 
4.88326e-15 -1.97181 0 
SCALARS mass double 1
LOOKUP_TABLE default
0.625
0.625
0.625
0.625
0.625
0.625
0.625
0.625
0.625
0.625
0.625
0.625
0.625
0.625
0.625
0.625
0.625
0.625
0.625
0.625
0.625
0.625
0.625
0.625
0.625
0.625
0.625
0.625
0.625
0.625
0.625
0.625
0.625
0.625
0.625
0.625
0.625
0.625
0.625
0.625
0.625
0.625
0.625
0.625
0.625
0.625
0.625
0.625
0.625
0.625
0.625
0.625
0.625
0.625
0.625
0.625
0.625
0.625
0.625
0.625
0.625
0.625
0.625
0.625
SCALARS volume double 1
LOOKUP_TABLE default
0.000625
0.000625
0.000625
0.000625
0.000625
0.000625
0.000625
0.000625
0.000625
0.000625
0.000625
0.000625
0.000625
0.000625
0.000625
0.000625
0.000625
0.000625
0.000625
0.000625
0.000625
0.000625
0.000625
0.000625
0.000625
0.000625
0.000625
0.000625
0.000625
0.000625
0.000625
0.000625
0.000625
0.000625
0.000625
0.000625
0.000625
0.000625
0.000625
0.000625
0.000625
0.000625
0.000625
0.000625
0.000625
0.000625
0.000625
0.000625
0.000625
0.000625
0.000625
0.000625
0.000625
0.000625
0.000625
0.000625
0.000625
0.000625
0.000625
0.000625
0.000625
0.000625
0.000625
0.000625
VECTORS momentum double
1.01575e-14 -1.23238 0 
-2.94326e-15 -1.23238 0 
2.1203e-15 -1.23238 0 
-3.76045e-15 -1.23238 0 
-1.48754e-14 -1.23238 0 
-8.02344e-15 -1.23238 0 
-6.5544e-15 -1.23238 0 
-3.00161e-15 -1.23238 0 
5.30294e-15 -1.23238 0 
5.46546e-15 -1.23238 0 
2.96193e-15 -1.23238 0 
2.88883e-15 -1.23238 0 
-2.15259e-15 -1.23238 0 
-1.8887e-16 -1.23238 0 
2.30453e-16 -1.23238 0 
9.28022e-16 -1.23238 0 
-2.28313e-15 -1.23238 0 
-3.61453e-15 -1.23238 0 
-3.05278e-15 -1.23238 0 
-2.50549e-15 -1.23238 0 
-2.05662e-15 -1.23238 0 
-3.94069e-16 -1.23238 0 
-1.38204e-15 -1.23238 0 
-2.00824e-16 -1.23238 0 
1.4908e-15 -1.23238 0 
1.4821e-15 -1.23238 0 
8.89541e-16 -1.23238 0 
1.24528e-15 -1.23238 0 
1.25848e-15 -1.23238 0 
1.63246e-15 -1.23238 0 
9.31504e-16 -1.23238 0 
1.92445e-15 -1.23238 0 
-3.10291e-15 -1.23238 0 
-8.32725e-16 -1.23238 0 
-2.43352e-15 -1.23238 0 
1.40378e-15 -1.23238 0 
-4.29749e-16 -1.23238 0 
2.30735e-16 -1.23238 0 
8.00244e-16 -1.23238 0 
9.00608e-16 -1.23238 0 
4.44328e-16 -1.23238 0 
1.08567e-15 -1.23238 0 
1.55161e-16 -1.23238 0 
1.00327e-15 -1.23238 0 
9.10001e-16 -1.23238 0 
2.00526e-15 -1.23238 0 
1.19397e-15 -1.23238 0 
1.87489e-15 -1.23238 0 
-5.4759e-15 -1.23238 0 
3.31198e-15 -1.23238 0 
-1.223e-14 -1.23238 0 
4.89189e-15 -1.23238 0 
6.32184e-15 -1.23238 0 
3.72929e-15 -1.23238 0 
1.6135e-14 -1.23238 0 
8.71677e-15 -1.23238 0 
-1.41326e-15 -1.23238 0 
-5.05769e-16 -1.23238 0 
-4.26093e-15 -1.23238 0 
-3.44144e-15 -1.23238 0 
2.36288e-15 -1.23238 0 
2.22381e-15 -1.23238 0 
4.41671e-15 -1.23238 0 
3.05204e-15 -1.23238 0 
VECTORS body_force double
0 -9.81 0 
0 -9.81 0 
0 -9.81 0 
0 -9.81 0 
0 -9.81 0 
0 -9.81 0 
0 -9.81 0 
0 -9.81 0 
0 -9.81 0 
0 -9.81 0 
0 -9.81 0 
0 -9.81 0 
0 -9.81 0 
0 -9.81 0 
0 -9.81 0 
0 -9.81 0 
0 -9.81 0 
0 -9.81 0 
0 -9.81 0 
0 -9.81 0 
0 -9.81 0 
0 -9.81 0 
0 -9.81 0 
0 -9.81 0 
0 -9.81 0 
0 -9.81 0 
0 -9.81 0 
0 -9.81 0 
0 -9.81 0 
0 -9.81 0 
0 -9.81 0 
0 -9.81 0 
0 -9.81 0 
0 -9.81 0 
0 -9.81 0 
0 -9.81 0 
0 -9.81 0 
0 -9.81 0 
0 -9.81 0 
0 -9.81 0 
0 -9.81 0 
0 -9.81 0 
0 -9.81 0 
0 -9.81 0 
0 -9.81 0 
0 -9.81 0 
0 -9.81 0 
0 -9.81 0 
0 -9.81 0 
0 -9.81 0 
0 -9.81 0 
0 -9.81 0 
0 -9.81 0 
0 -9.81 0 
0 -9.81 0 
0 -9.81 0 
0 -9.81 0 
0 -9.81 0 
0 -9.81 0 
0 -9.81 0 
0 -9.81 0 
0 -9.81 0 
0 -9.81 0 
0 -9.81 0 
TENSORS cauchy_stress double
7.8418e-11 -4.02493e-11 0
-4.02493e-11 1.48343e-10 0
0 0 0

-3.49124e-11 -3.49805e-11 0
-3.49805e-11 -1.49644e-10 0
0 0 0

8.31454e-11 -4.28312e-11 0
-4.28312e-11 1.59373e-10 0
0 0 0

2.65048e-11 -1.8051e-11 0
-1.8051e-11 -6.33725e-12 0
0 0 0

-1.2611e-11 -1.88594e-11 0
-1.88594e-11 -1.4692e-10 0
0 0 0

1.38898e-11 4.98174e-11 0
4.98174e-11 -3.64401e-11 0
0 0 0

1.59014e-11 -1.0586e-11 0
-1.0586e-11 -8.0391e-11 0
0 0 0

3.2873e-11 1.57816e-11 0
1.57816e-11 7.8541e-12 0
0 0 0

-1.38288e-10 3.33992e-11 0
3.33992e-11 -2.05948e-10 0
0 0 0

-2.84026e-11 -3.4112e-11 0
-3.4112e-11 1.23354e-10 0
0 0 0

-9.80124e-11 2.36289e-11 0
2.36289e-11 -1.11971e-10 0
0 0 0

-4.29935e-11 -2.19226e-11 0
-2.19226e-11 8.93085e-11 0
0 0 0

-1.98688e-11 -2.68038e-11 0
-2.68038e-11 2.09614e-11 0
0 0 0

-4.8849e-11 1.40445e-11 0
1.40445e-11 -1.23652e-10 0
0 0 0

1.40564e-11 -8.25783e-12 0
-8.25783e-12 1.0012e-10 0
0 0 0

-4.6801e-11 1.91862e-11 0
1.91862e-11 -1.18874e-10 0
0 0 0

1.34649e-10 8.9957e-12 0
8.9957e-12 2.09685e-10 0
0 0 0

-3.06115e-11 1.5372e-11 0
1.5372e-11 -7.29981e-11 0
0 0 0

1.12703e-10 2.89588e-12 0
2.89588e-12 1.58477e-10 0
0 0 0

-2.67684e-11 -9.7788e-13 0
-9.7788e-13 -6.40309e-11 0
0 0 0

-1.04961e-10 7.0794e-12 0
7.0794e-12 -1.02704e-10 0
0 0 0

-6.53501e-11 -1.15923e-11 0
-1.15923e-11 1.03626e-11 0
0 0 0

-9.40219e-11 -6.92306e-12 0
-6.92306e-12 -7.7178e-11 0
0 0 0

-6.8921e-11 -9.9748e-12 0
-9.9748e-12 2.0306e-12 0
0 0 0

-1.11739e-10 -8.31045e-12 0
-8.31045e-12 -6.91295e-11 0
0 0 0

-3.78979e-11 -3.28679e-11 0
-3.28679e-11 9.14222e-11 0
0 0 0

-1.0341e-10 -1.3537e-11 0
-1.3537e-11 -4.96959e-11 0
0 0 0

-4.29083e-11 -2.73867e-11 0
-2.73867e-11 7.97313e-11 0
0 0 0

-4.61616e-11 -2.34352e-11 0
-2.34352e-11 6.75431e-12 0
0 0 0

-1.23277e-10 4.3426e-12 0
4.3426e-12 -1.665e-10 0
0 0 0

-1.90066e-11 -2.04649e-11 0
-2.04649e-11 7.01159e-11 0
0 0 0

-9.6329e-11 -7.04996e-12 0
-7.04996e-12 -1.03621e-10 0
0 0 0

1.23413e-10 1.01529e-11 0
1.01529e-11 1.87916e-10 0
0 0 0

-3.47319e-11 2.81616e-12 0
2.81616e-12 -8.53355e-11 0
0 0 0

1.10019e-10 2.62255e-12 0
2.62255e-12 1.56664e-10 0
0 0 0

-7.06173e-12 -1.03188e-11 0
-1.03188e-11 -2.07717e-11 0
0 0 0

-9.14336e-11 1.62795e-11 0
1.62795e-11 -6.17426e-11 0
0 0 0

-5.88651e-11 2.2247e-12 0
2.2247e-12 4.59362e-11 0
0 0 0

-1.24294e-10 4.30357e-12 0
4.30357e-12 -1.38416e-10 0
0 0 0

-6.78419e-11 -3.22122e-12 0
-3.22122e-12 2.49903e-11 0
0 0 0

-8.73447e-11 -1.81405e-12 0
-1.81405e-12 -1.81101e-12 0
0 0 0

-2.61861e-11 1.36801e-11 0
1.36801e-11 1.41207e-10 0
0 0 0

-1.24999e-10 -7.31559e-12 0
-7.31559e-12 -8.96717e-11 0
0 0 0

-4.04695e-11 1.76759e-11 0
1.76759e-11 1.07879e-10 0
0 0 0

-2.09162e-11 -3.9781e-12 0
-3.9781e-12 8.33164e-11 0
0 0 0

-1.28487e-10 -1.13089e-11 0
-1.13089e-11 -1.41947e-10 0
0 0 0

-4.11472e-11 -2.45471e-12 0
-2.45471e-12 3.61107e-11 0
0 0 0

-1.19034e-10 -1.81189e-11 0
-1.81189e-11 -1.19891e-10 0
0 0 0

7.19495e-11 4.26242e-11 0
4.26242e-11 2.01029e-10 0
0 0 0

-2.55388e-12 1.43582e-11 0
1.43582e-11 -5.58066e-11 0
0 0 0

7.47093e-11 4.02608e-11 0
4.02608e-11 2.07469e-10 0
0 0 0

-2.22625e-11 2.91289e-11 0
2.91289e-11 -1.01793e-10 0
0 0 0

-5.03498e-12 -1.37867e-12 0
-1.37867e-12 -1.00837e-10 0
0 0 0

1.90895e-11 -3.1317e-11 0
-3.1317e-11 2.45448e-11 0
0 0 0

1.87202e-13 4.72816e-12 0
4.72816e-12 -8.86522e-11 0
0 0 0

1.41207e-11 -6.51114e-11 0
-6.51114e-11 1.2951e-11 0
0 0 0

-9.29257e-11 -3.63945e-11 0
-3.63945e-11 -6.75458e-11 0
0 0 0

-4.763e-11 6.55741e-12 0
6.55741e-12 1.13607e-10 0
0 0 0

-1.20304e-10 -4.74968e-11 0
-4.74968e-11 -1.3143e-10 0
0 0 0

-3.21232e-11 2.36127e-11 0
2.36127e-11 1.4979e-10 0
0 0 0

-1.27801e-12 9.38589e-12 0
9.38589e-12 9.76178e-11 0
0 0 0

-6.62758e-11 -1.65128e-11 0
-1.65128e-11 -1.32423e-10 0
0 0 0

-1.14089e-11 2.79008e-11 0
2.79008e-11 7.3979e-11 0
0 0 0

-6.28202e-11 -1.70089e-11 0
-1.70089e-11 -1.2436e-10 0
0 0 0

TENSORS velocity_gradient double
-1.18631e-13 -2.72609e-13 0
1.03029e-13 2.16716e-13 0
0 0 0

-1.34354e-14 -2.72609e-13 0
4.61853e-14 2.45137e-13 0
0 0 0

-1.18631e-13 -1.67413e-13 0
8.52651e-14 1.56319e-13 0
0 0 0

-1.34354e-14 -1.67413e-13 0
1.42109e-14 1.7053e-13 0
0 0 0

3.93418e-14 5.6708e-14 0
-3.01981e-14 5.50671e-14 0
0 0 0

5.89926e-14 5.6708e-14 0
-8.52651e-14 7.10543e-14 0
0 0 0

3.93418e-14 7.63587e-14 0
-3.55271e-14 3.55271e-14 0
0 0 0

5.89926e-14 7.63587e-14 0
-8.52651e-14 2.84217e-14 0
0 0 0

4.54245e-14 1.41869e-13 0
-5.86198e-14 -4.13891e-13 0
0 0 0

1.08636e-14 1.41869e-13 0
1.06581e-14 -3.58824e-13 0
0 0 0

4.54245e-14 1.07308e-13 0
-6.03961e-14 -3.30402e-13 0
0 0 0

1.08636e-14 1.07308e-13 0
0 -3.41061e-13 0
0 0 0

1.41748e-14 -7.52634e-14 0
1.95399e-14 1.75859e-13 0
0 0 0

4.14195e-14 -7.52634e-14 0
2.4869e-14 2.38032e-13 0
0 0 0

1.41748e-14 -4.80186e-14 0
2.84217e-14 2.27374e-13 0
0 0 0

4.14195e-14 -4.80186e-14 0
5.68434e-14 1.98952e-13 0
0 0 0

-3.534e-14 -7.63426e-14 0
2.4869e-14 1.38556e-13 0
0 0 0

4.16042e-14 -7.63426e-14 0
-1.77636e-14 1.24345e-13 0
0 0 0

-3.534e-14 6.0153e-16 0
2.84217e-14 8.52651e-14 0
0 0 0

4.16042e-14 6.0153e-16 0
1.42109e-14 1.27898e-13 0
0 0 0

6.07501e-14 7.74939e-14 0
-1.24345e-14 1.77636e-15 0
0 0 0

4.33697e-14 7.74939e-14 0
-1.06581e-14 3.19744e-14 0
0 0 0

6.07501e-14 6.01135e-14 0
-1.42109e-14 4.26326e-14 0
0 0 0

4.33697e-14 6.01135e-14 0
1.42109e-14 2.84217e-14 0
0 0 0

1.73393e-14 7.4279e-14 0
-5.32907e-15 -3.17968e-13 0
0 0 0

-1.41577e-14 7.4279e-14 0
7.10543e-15 -3.05533e-13 0
0 0 0

1.73393e-14 4.2782e-14 0
-7.10543e-15 -2.91323e-13 0
0 0 0

-1.41577e-14 4.2782e-14 0
-1.42109e-14 -3.55271e-13 0
0 0 0

-9.75089e-15 -2.0848e-14 0
1.77636e-15 1.72307e-13 0
0 0 0

1.73457e-14 -2.0848e-14 0
-1.77636e-14 2.52243e-13 0
0 0 0

-9.75089e-15 6.24862e-15 0
3.55271e-15 2.30926e-13 0
0 0 0

1.73457e-14 6.24862e-15 0
1.42109e-14 2.41585e-13 0
0 0 0

1.7663e-14 7.40336e-14 0
1.77636e-15 3.01981e-14 0
0 0 0

8.7583e-14 7.40336e-14 0
0 8.52651e-14 0
0 0 0

1.7663e-14 1.43954e-13 0
3.55271e-14 7.81597e-14 0
0 0 0

8.7583e-14 1.43954e-13 0
4.26326e-14 7.10543e-14 0
0 0 0

9.40977e-14 3.46459e-14 0
2.4869e-14 2.4869e-14 0
0 0 0

6.05427e-14 3.46459e-14 0
-3.19744e-14 3.90799e-14 0
0 0 0

9.40977e-14 1.09093e-15 0
1.42109e-14 2.84217e-14 0
0 0 0

6.05427e-14 1.09093e-15 0
-4.26326e-14 -5.68434e-14 0
0 0 0

2.62426e-14 9.64803e-15 0
-3.90799e-14 -3.51719e-13 0
0 0 0

-8.52847e-15 9.64803e-15 0
-1.42109e-14 -3.2685e-13 0
0 0 0

2.62426e-14 -2.5123e-14 0
-4.26326e-14 -3.41061e-13 0
0 0 0

-8.52847e-15 -2.5123e-14 0
-2.84217e-14 -3.12639e-13 0
0 0 0

-9.919e-15 2.96492e-14 0
-4.08562e-14 2.2915e-13 0
0 0 0

9.78564e-15 2.96492e-14 0
-4.61853e-14 2.38032e-13 0
0 0 0

-9.919e-15 4.93539e-14 0
-3.55271e-14 1.91847e-13 0
0 0 0

9.78564e-15 4.93539e-14 0
-9.9476e-14 1.98952e-13 0
0 0 0

-6.21381e-14 2.3554e-13 0
-1.82965e-13 1.29674e-13 0
0 0 0

5.11158e-14 2.3554e-13 0
-8.52651e-14 1.42109e-13 0
0 0 0

-6.21381e-14 3.48794e-13 0
-1.95399e-13 2.02505e-13 0
0 0 0

5.11158e-14 3.48794e-13 0
-9.9476e-14 2.27374e-13 0
0 0 0

8.81569e-14 -2.12477e-14 0
-1.06581e-14 3.55271e-15 0
0 0 0

7.70345e-14 -2.12477e-14 0
1.06581e-14 1.06581e-14 0
0 0 0

8.81569e-14 -3.23701e-14 0
-2.4869e-14 4.61853e-14 0
0 0 0

7.70345e-14 -3.23701e-14 0
0 5.68434e-14 0
0 0 0

4.83209e-14 -6.24238e-14 0
2.13163e-14 -3.62377e-13 0
0 0 0

8.49026e-15 -6.24238e-14 0
-4.9738e-14 -3.62377e-13 0
0 0 0

4.83209e-14 -1.02254e-13 0
3.55271e-15 -4.36984e-13 0
0 0 0

8.49026e-15 -1.02254e-13 0
-2.84217e-14 -3.69482e-13 0
0 0 0

8.40256e-15 7.17203e-14 0
-6.57252e-14 1.61648e-13 0
0 0 0

3.34308e-14 7.17203e-14 0
-6.03961e-14 1.95399e-13 0
0 0 0

8.40256e-15 9.67486e-14 0
-6.75016e-14 1.3145e-13 0
0 0 0

3.34308e-14 9.67486e-14 0
-7.10543e-14 1.84741e-13 0
0 0 0

SCALARS active double 1
LOOKUP_TABLE default
1
1
1
1
1
1
1
1
1
1
1
1
1
1
1
1
1
1
1
1
1
1
1
1
1
1
1
1
1
1
1
1
1
1
1
1
1
1
1
1
1
1
1
1
1
1
1
1
1
1
1
1
1
1
1
1
1
1
1
1
1
1
1
1
SCALARS extent double 1
LOOKUP_TABLE default
0.0125
0.0125
0.0125
0.0125
0.0125
0.0125
0.0125
0.0125
0.0125
0.0125
0.0125
0.0125
0.0125
0.0125
0.0125
0.0125
0.0125
0.0125
0.0125
0.0125
0.0125
0.0125
0.0125
0.0125
0.0125
0.0125
0.0125
0.0125
0.0125
0.0125
0.0125
0.0125
0.0125
0.0125
0.0125
0.0125
0.0125
0.0125
0.0125
0.0125
0.0125
0.0125
0.0125
0.0125
0.0125
0.0125
0.0125
0.0125
0.0125
0.0125
0.0125
0.0125
0.0125
0.0125
0.0125
0.0125
0.0125
0.0125
0.0125
0.0125
0.0125
0.0125
0.0125
0.0125
SCALARS pressure double 1
LOOKUP_TABLE default
-1.1338e-10
9.22782e-11
-1.21259e-10
-1.00838e-11
7.97655e-11
1.12751e-11
3.22448e-11
-2.03635e-11
1.72118e-10
-4.74757e-11
1.04992e-10
-2.31575e-11
-5.46266e-13
8.62506e-11
-5.70882e-11
8.28372e-11
-1.72167e-10
5.18048e-11
-1.3559e-10
4.53997e-11
1.03833e-10
2.74938e-11
8.55999e-11
3.34452e-11
9.04342e-11
-2.67622e-11
7.6553e-11
-1.84115e-11
1.97036e-11
1.44888e-10
-2.55546e-11
9.9975e-11
-1.55665e-10
6.00337e-11
-1.33341e-10
1.39167e-11
7.65881e-11
6.46448e-12
1.31355e-10
2.14258e-11
4.45779e-11
-5.75106e-11
1.07336e-10
-3.37049e-11
-3.12001e-11
1.35217e-10
2.51827e-12
1.19463e-10
-1.36489e-10
2.91802e-11
-1.41089e-10
6.20279e-11
5.29361e-11
-2.18172e-11
4.42325e-11
-1.35359e-11
8.02357e-11
-3.29885e-11
1.25867e-10
-5.88332e-11
-4.81699e-11
9.93495e-11
-3.1285e-11
9.35902e-11
SCALARS density double 1
LOOKUP_TABLE default
1000
1000
1000
1000
1000
1000
1000
1000
1000
1000
1000
1000
1000
1000
1000
1000
1000
1000
1000
1000
1000
1000
1000
1000
1000
1000
1000
1000
1000
1000
1000
1000
1000
1000
1000
1000
1000
1000
1000
1000
1000
1000
1000
1000
1000
1000
1000
1000
1000
1000
1000
1000
1000
1000
1000
1000
1000
1000
1000
1000
1000
1000
1000
1000
