# vtk DataFile Version 3.0
Frame: 9, Time: 0.167
ASCII
DATASET UNSTRUCTURED_GRID
POINTS 64 double
0.4125 0.273237 0 
0.4125 0.298237 0 
0.4375 0.273237 0 
0.4375 0.298237 0 
0.4125 0.323237 0 
0.4125 0.348237 0 
0.4375 0.323237 0 
0.4375 0.348237 0 
0.4125 0.373237 0 
0.4125 0.398237 0 
0.4375 0.373237 0 
0.4375 0.398237 0 
0.4125 0.423237 0 
0.4125 0.448237 0 
0.4375 0.423237 0 
0.4375 0.448237 0 
0.4625 0.273237 0 
0.4625 0.298237 0 
0.4875 0.273237 0 
0.4875 0.298237 0 
0.4625 0.323237 0 
0.4625 0.348237 0 
0.4875 0.323237 0 
0.4875 0.348237 0 
0.4625 0.373237 0 
0.4625 0.398237 0 
0.4875 0.373237 0 
0.4875 0.398237 0 
0.4625 0.423237 0 
0.4625 0.448237 0 
0.4875 0.423237 0 
0.4875 0.448237 0 
0.5125 0.273237 0 
0.5125 0.298237 0 
0.5375 0.273237 0 
0.5375 0.298237 0 
0.5125 0.323237 0 
0.5125 0.348237 0 
0.5375 0.323237 0 
0.5375 0.348237 0 
0.5125 0.373237 0 
0.5125 0.398237 0 
0.5375 0.373237 0 
0.5375 0.398237 0 
0.5125 0.423237 0 
0.5125 0.448237 0 
0.5375 0.423237 0 
0.5375 0.448237 0 
0.5625 0.273237 0 
0.5625 0.298237 0 
0.5875 0.273237 0 
0.5875 0.298237 0 
0.5625 0.323237 0 
0.5625 0.348237 0 
0.5875 0.323237 0 
0.5875 0.348237 0 
0.5625 0.373237 0 
0.5625 0.398237 0 
0.5875 0.373237 0 
0.5875 0.398237 0 
0.5625 0.423237 0 
0.5625 0.448237 0 
0.5875 0.423237 0 
0.5875 0.448237 0 
CELLS 64 128
1 0
1 1
1 2
1 3
1 4
1 5
1 6
1 7
1 8
1 9
1 10
1 11
1 12
1 13
1 14
1 15
1 16
1 17
1 18
1 19
1 20
1 21
1 22
1 23
1 24
1 25
1 26
1 27
1 28
1 29
1 30
1 31
1 32
1 33
1 34
1 35
1 36
1 37
1 38
1 39
1 40
1 41
1 42
1 43
1 44
1 45
1 46
1 47
1 48
1 49
1 50
1 51
1 52
1 53
1 54
1 55
1 56
1 57
1 58
1 59
1 60
1 61
1 62
1 63
CELL_TYPES 64
1
1
1
1
1
1
1
1
1
1
1
1
1
1
1
1
1
1
1
1
1
1
1
1
1
1
1
1
1
1
1
1
1
1
1
1
1
1
1
1
1
1
1
1
1
1
1
1
1
1
1
1
1
1
1
1
1
1
1
1
1
1
1
1
POINT_DATA 64
VECTORS displacement double
-5.81325e-17 -0.139263 0 
-5.71291e-17 -0.139263 0 
-5.64575e-17 -0.139263 0 
-5.57779e-17 -0.139263 0 
-5.38627e-17 -0.139263 0 
-5.31235e-17 -0.139263 0 
-5.31804e-17 -0.139263 0 
-5.22915e-17 -0.139263 0 
-4.91363e-17 -0.139263 0 
-5.24695e-17 -0.139263 0 
-4.95565e-17 -0.139263 0 
-5.03825e-17 -0.139263 0 
-4.96172e-17 -0.139263 0 
-4.35034e-17 -0.139263 0 
-4.84696e-17 -0.139263 0 
-4.35919e-17 -0.139263 0 
-5.53876e-17 -0.139263 0 
-5.46469e-17 -0.139263 0 
-5.4923e-17 -0.139263 0 
-5.37361e-17 -0.139263 0 
-5.20276e-17 -0.139263 0 
-5.04843e-17 -0.139263 0 
-5.04044e-17 -0.139263 0 
-4.77017e-17 -0.139263 0 
-4.83092e-17 -0.139263 0 
-4.73925e-17 -0.139263 0 
-4.53945e-17 -0.139263 0 
-4.34996e-17 -0.139263 0 
-4.61787e-17 -0.139263 0 
-4.25657e-17 -0.139263 0 
-4.27444e-17 -0.139263 0 
-4.04245e-17 -0.139263 0 
-5.53059e-17 -0.139263 0 
-5.35022e-17 -0.139263 0 
-5.65363e-17 -0.139263 0 
-5.39453e-17 -0.139263 0 
-4.99712e-17 -0.139263 0 
-4.58743e-17 -0.139263 0 
-5.07279e-17 -0.139263 0 
-4.50018e-17 -0.139263 0 
-4.29927e-17 -0.139263 0 
-4.03194e-17 -0.139263 0 
-4.11039e-17 -0.139263 0 
-3.78518e-17 -0.139263 0 
-4.00677e-17 -0.139263 0 
-3.85274e-17 -0.139263 0 
-3.81486e-17 -0.139263 0 
-3.68742e-17 -0.139263 0 
-5.62505e-17 -0.139263 0 
-5.41935e-17 -0.139263 0 
-5.44484e-17 -0.139263 0 
-5.42468e-17 -0.139263 0 
-5.13909e-17 -0.139263 0 
-4.50752e-17 -0.139263 0 
-5.19603e-17 -0.139263 0 
-4.60944e-17 -0.139263 0 
-4.18356e-17 -0.139263 0 
-3.66539e-17 -0.139263 0 
-4.51879e-17 -0.139263 0 
-3.67257e-17 -0.139263 0 
-3.61049e-17 -0.139263 0 
-3.58447e-17 -0.139263 0 
-3.39364e-17 -0.139263 0 
-3.54389e-17 -0.139263 0 
VECTORS velocity double
2.6434e-15 -1.64808 0 
-2.88146e-15 -1.64808 0 
6.8717e-16 -1.64808 0 
-1.46169e-15 -1.64808 0 
-2.66332e-15 -1.64808 0 
-2.87742e-16 -1.64808 0 
-1.20014e-15 -1.64808 0 
-3.27971e-16 -1.64808 0 
3.396e-16 -1.64808 0 
-8.35879e-16 -1.64808 0 
-1.22727e-16 -1.64808 0 
2.31416e-16 -1.64808 0 
4.74854e-16 -1.64808 0 
1.3834e-15 -1.64808 0 
4.8378e-16 -1.64808 0 
1.29194e-15 -1.64808 0 
-2.37139e-16 -1.64808 0 
-5.63084e-16 -1.64808 0 
-1.29527e-16 -1.64808 0 
-1.85642e-16 -1.64808 0 
-3.30577e-16 -1.64808 0 
-2.80584e-16 -1.64808 0 
-5.46463e-17 -1.64808 0 
-1.45583e-16 -1.64808 0 
-3.19203e-16 -1.64808 0 
4.44776e-16 -1.64808 0 
-2.49828e-16 -1.64808 0 
-1.958e-16 -1.64808 0 
3.92919e-16 -1.64808 0 
7.3657e-16 -1.64808 0 
2.02271e-16 -1.64808 0 
-2.82706e-16 -1.64808 0 
-3.19287e-16 -1.64808 0 
-5.54703e-17 -1.64808 0 
-8.0642e-16 -1.64808 0 
-1.72569e-16 -1.64808 0 
-1.11316e-16 -1.64808 0 
-1.3168e-16 -1.64808 0 
-5.00588e-16 -1.64808 0 
-2.38873e-16 -1.64808 0 
-1.27872e-16 -1.64808 0 
-7.5858e-16 -1.64808 0 
4.66654e-17 -1.64808 0 
-1.24356e-15 -1.64808 0 
-3.66025e-16 -1.64808 0 
-1.34213e-15 -1.64808 0 
-1.31197e-15 -1.64808 0 
-2.4417e-15 -1.64808 0 
-1.7382e-15 -1.64808 0 
1.28673e-17 -1.64808 0 
-3.11462e-15 -1.64808 0 
5.00839e-16 -1.64808 0 
-1.64953e-16 -1.64808 0 
-5.03614e-16 -1.64808 0 
8.95586e-16 -1.64808 0 
-9.25901e-16 -1.64808 0 
-7.2267e-16 -1.64808 0 
-1.26231e-15 -1.64808 0 
-2.43588e-15 -1.64808 0 
-8.14815e-16 -1.64808 0 
-1.70701e-15 -1.64808 0 
-2.72559e-15 -1.64808 0 
-1.55115e-15 -1.64808 0 
-2.19381e-15 -1.64808 0 
SCALARS mass double 1
LOOKUP_TABLE default
0.625
0.625
0.625
0.625
0.625
0.625
0.625
0.625
0.625
0.625
0.625
0.625
0.625
0.625
0.625
0.625
0.625
0.625
0.625
0.625
0.625
0.625
0.625
0.625
0.625
0.625
0.625
0.625
0.625
0.625
0.625
0.625
0.625
0.625
0.625
0.625
0.625
0.625
0.625
0.625
0.625
0.625
0.625
0.625
0.625
0.625
0.625
0.625
0.625
0.625
0.625
0.625
0.625
0.625
0.625
0.625
0.625
0.625
0.625
0.625
0.625
0.625
0.625
0.625
SCALARS volume double 1
LOOKUP_TABLE default
0.000625
0.000625
0.000625
0.000625
0.000625
0.000625
0.000625
0.000625
0.000625
0.000625
0.000625
0.000625
0.000625
0.000625
0.000625
0.000625
0.000625
0.000625
0.000625
0.000625
0.000625
0.000625
0.000625
0.000625
0.000625
0.000625
0.000625
0.000625
0.000625
0.000625
0.000625
0.000625
0.000625
0.000625
0.000625
0.000625
0.000625
0.000625
0.000625
0.000625
0.000625
0.000625
0.000625
0.000625
0.000625
0.000625
0.000625
0.000625
0.000625
0.000625
0.000625
0.000625
0.000625
0.000625
0.000625
0.000625
0.000625
0.000625
0.000625
0.000625
0.000625
0.000625
0.000625
0.000625
VECTORS momentum double
1.65213e-15 -1.03005 0 
-1.80091e-15 -1.03005 0 
4.29481e-16 -1.03005 0 
-9.13557e-16 -1.03005 0 
-1.66458e-15 -1.03005 0 
-1.79839e-16 -1.03005 0 
-7.50085e-16 -1.03005 0 
-2.04982e-16 -1.03005 0 
2.1225e-16 -1.03005 0 
-5.22425e-16 -1.03005 0 
-7.67044e-17 -1.03005 0 
1.44635e-16 -1.03005 0 
2.96784e-16 -1.03005 0 
8.64627e-16 -1.03005 0 
3.02363e-16 -1.03005 0 
8.07463e-16 -1.03005 0 
-1.48212e-16 -1.03005 0 
-3.51928e-16 -1.03005 0 
-8.09542e-17 -1.03005 0 
-1.16026e-16 -1.03005 0 
-2.06611e-16 -1.03005 0 
-1.75365e-16 -1.03005 0 
-3.41539e-17 -1.03005 0 
-9.09896e-17 -1.03005 0 
-1.99502e-16 -1.03005 0 
2.77985e-16 -1.03005 0 
-1.56143e-16 -1.03005 0 
-1.22375e-16 -1.03005 0 
2.45574e-16 -1.03005 0 
4.60356e-16 -1.03005 0 
1.26419e-16 -1.03005 0 
-1.76691e-16 -1.03005 0 
-1.99554e-16 -1.03005 0 
-3.46689e-17 -1.03005 0 
-5.04013e-16 -1.03005 0 
-1.07856e-16 -1.03005 0 
-6.95728e-17 -1.03005 0 
-8.22998e-17 -1.03005 0 
-3.12867e-16 -1.03005 0 
-1.49296e-16 -1.03005 0 
-7.99201e-17 -1.03005 0 
-4.74113e-16 -1.03005 0 
2.91659e-17 -1.03005 0 
-7.77228e-16 -1.03005 0 
-2.28765e-16 -1.03005 0 
-8.38832e-16 -1.03005 0 
-8.1998e-16 -1.03005 0 
-1.52606e-15 -1.03005 0 
-1.08637e-15 -1.03005 0 
8.04208e-18 -1.03005 0 
-1.94664e-15 -1.03005 0 
3.13024e-16 -1.03005 0 
-1.03096e-16 -1.03005 0 
-3.14759e-16 -1.03005 0 
5.59741e-16 -1.03005 0 
-5.78688e-16 -1.03005 0 
-4.51669e-16 -1.03005 0 
-7.88943e-16 -1.03005 0 
-1.52242e-15 -1.03005 0 
-5.0926e-16 -1.03005 0 
-1.06688e-15 -1.03005 0 
-1.7035e-15 -1.03005 0 
-9.69466e-16 -1.03005 0 
-1.37113e-15 -1.03005 0 
VECTORS body_force double
0 -9.81 0 
0 -9.81 0 
0 -9.81 0 
0 -9.81 0 
0 -9.81 0 
0 -9.81 0 
0 -9.81 0 
0 -9.81 0 
0 -9.81 0 
0 -9.81 0 
0 -9.81 0 
0 -9.81 0 
0 -9.81 0 
0 -9.81 0 
0 -9.81 0 
0 -9.81 0 
0 -9.81 0 
0 -9.81 0 
0 -9.81 0 
0 -9.81 0 
0 -9.81 0 
0 -9.81 0 
0 -9.81 0 
0 -9.81 0 
0 -9.81 0 
0 -9.81 0 
0 -9.81 0 
0 -9.81 0 
0 -9.81 0 
0 -9.81 0 
0 -9.81 0 
0 -9.81 0 
0 -9.81 0 
0 -9.81 0 
0 -9.81 0 
0 -9.81 0 
0 -9.81 0 
0 -9.81 0 
0 -9.81 0 
0 -9.81 0 
0 -9.81 0 
0 -9.81 0 
0 -9.81 0 
0 -9.81 0 
0 -9.81 0 
0 -9.81 0 
0 -9.81 0 
0 -9.81 0 
0 -9.81 0 
0 -9.81 0 
0 -9.81 0 
0 -9.81 0 
0 -9.81 0 
0 -9.81 0 
0 -9.81 0 
0 -9.81 0 
0 -9.81 0 
0 -9.81 0 
0 -9.81 0 
0 -9.81 0 
0 -9.81 0 
0 -9.81 0 
0 -9.81 0 
0 -9.81 0 
TENSORS cauchy_stress double
2.46559e-11 -1.09141e-11 0
-1.09141e-11 4.03507e-11 0
0 0 0

-3.68509e-11 1.1176e-11 0
1.1176e-11 -9.98438e-11 0
0 0 0

1.77264e-11 -7.6372e-12 0
-7.6372e-12 2.41817e-11 0
0 0 0

-3.44281e-11 -2.26087e-12 0
-2.26087e-12 -9.41908e-11 0
0 0 0

2.16554e-11 -3.54045e-12 0
-3.54045e-12 4.35308e-11 0
0 0 0

-3.55679e-12 6.36682e-12 0
6.36682e-12 -1.68326e-11 0
0 0 0

8.53573e-12 -6.68318e-12 0
-6.68318e-12 1.29182e-11 0
0 0 0

7.06132e-12 1.76017e-12 0
1.76017e-12 7.94298e-12 0
0 0 0

7.37632e-12 8.98791e-12 0
8.98791e-12 2.15204e-11 0
0 0 0

2.16524e-11 -4.89352e-12 0
-4.89352e-12 2.91172e-11 0
0 0 0

-8.26301e-12 4.27613e-12 0
4.27613e-12 -1.49714e-11 0
0 0 0

7.92303e-12 8.2176e-12 0
8.2176e-12 -2.91805e-12 0
0 0 0

-7.07417e-12 6.36115e-12 0
6.36115e-12 -2.82764e-11 0
0 0 0

3.86116e-12 4.67446e-12 0
4.67446e-12 9.9174e-12 0
0 0 0

-8.74471e-12 1.24502e-12 0
1.24502e-12 -3.21743e-11 0
0 0 0

-6.10042e-12 5.10039e-12 0
5.10039e-12 -1.33263e-11 0
0 0 0

1.41373e-11 -2.34786e-12 0
-2.34786e-12 2.82214e-11 0
0 0 0

-4.08795e-11 9.85545e-12 0
9.85545e-12 -1.04727e-10 0
0 0 0

1.58767e-11 4.4642e-12 0
4.4642e-12 3.228e-11 0
0 0 0

-3.62358e-11 3.45016e-12 0
3.45016e-12 -9.38918e-11 0
0 0 0

2.55813e-11 -2.78982e-12 0
-2.78982e-12 4.30417e-11 0
0 0 0

1.19372e-11 1.27108e-11 0
1.27108e-11 -6.85294e-13 0
0 0 0

1.34888e-11 6.1738e-12 0
6.1738e-12 1.48259e-11 0
0 0 0

1.43615e-11 8.54131e-12 0
8.54131e-12 4.97151e-12 0
0 0 0

2.06479e-11 7.16385e-12 0
7.16385e-12 1.82845e-11 0
0 0 0

1.95191e-11 8.07213e-13 0
8.07213e-13 5.61722e-12 0
0 0 0

8.72479e-12 8.69162e-12 0
8.69162e-12 -9.5362e-12 0
0 0 0

2.63326e-11 6.71898e-12 0
6.71898e-12 2.15153e-11 0
0 0 0

3.84515e-13 1.88302e-12 0
1.88302e-12 -3.43261e-11 0
0 0 0

4.72154e-13 -8.99654e-13 0
-8.99654e-13 -2.08583e-11 0
0 0 0

-1.24157e-11 8.38565e-12 0
8.38565e-12 -6.41934e-11 0
0 0 0

3.84285e-12 4.0429e-12 0
4.0429e-12 -1.29934e-11 0
0 0 0

2.06147e-11 -5.57723e-12 0
-5.57723e-12 6.0721e-11 0
0 0 0

-5.03041e-11 1.802e-12 0
1.802e-12 -1.12832e-10 0
0 0 0

5.51448e-13 -2.02987e-12 0
-2.02987e-12 1.39067e-11 0
0 0 0

-3.73962e-11 -3.31003e-12 0
-3.31003e-12 -8.27135e-11 0
0 0 0

2.08655e-11 1.46359e-12 0
1.46359e-12 5.64471e-11 0
0 0 0

2.21885e-12 -2.03069e-12 0
-2.03069e-12 -3.77056e-12 0
0 0 0

1.68543e-11 5.90984e-12 0
5.90984e-12 4.70876e-11 0
0 0 0

1.6584e-12 -3.69266e-12 0
-3.69266e-12 -5.07828e-12 0
0 0 0

1.61104e-11 -1.74258e-12 0
-1.74258e-12 1.82179e-11 0
0 0 0

1.82151e-12 3.95386e-12 0
3.95386e-12 -2.10578e-11 0
0 0 0

1.86208e-11 1.43509e-12 0
1.43509e-12 2.40755e-11 0
0 0 0

1.16342e-11 2.94262e-12 0
2.94262e-12 1.83841e-12 0
0 0 0

-4.37967e-12 -5.78212e-12 0
-5.78212e-12 -2.99025e-11 0
0 0 0

-2.34709e-12 -1.92445e-12 0
-1.92445e-12 -2.24326e-11 0
0 0 0

1.85012e-12 6.02878e-13 0
6.02878e-13 -1.53663e-11 0
0 0 0

7.33587e-12 3.68031e-12 0
3.68031e-12 1.60981e-13 0
0 0 0

2.1112e-11 7.13884e-12 0
7.13884e-12 3.07782e-11 0
0 0 0

-4.01272e-11 -1.32297e-11 0
-1.32297e-11 -9.30829e-11 0
0 0 0

2.31697e-11 8.85228e-12 0
8.85228e-12 3.55794e-11 0
0 0 0

-4.03385e-11 -5.10028e-12 0
-5.10028e-12 -9.35761e-11 0
0 0 0

1.34216e-11 4.05485e-13 0
4.05485e-13 3.71571e-11 0
0 0 0

1.48105e-12 -1.84448e-12 0
-1.84448e-12 1.39086e-11 0
0 0 0

7.15502e-12 2.25346e-12 0
2.25346e-12 2.2535e-11 0
0 0 0

-9.40768e-12 -4.11893e-12 0
-4.11893e-12 -1.14984e-11 0
0 0 0

-2.21549e-12 -6.24956e-12 0
-6.24956e-12 2.92133e-11 0
0 0 0

-1.6026e-11 -7.81981e-12 0
-7.81981e-12 -3.66583e-11 0
0 0 0

-1.04856e-12 -5.83306e-12 0
-5.83306e-12 3.19362e-11 0
0 0 0

9.06447e-12 3.75455e-13 0
3.75455e-13 2.18862e-11 0
0 0 0

-5.42196e-12 -6.02935e-12 0
-6.02935e-12 -3.48915e-11 0
0 0 0

-1.13026e-11 -9.81431e-12 0
-9.81431e-12 -3.05347e-11 0
0 0 0

6.48398e-12 -1.04589e-11 0
-1.04589e-11 -7.11098e-12 0
0 0 0

3.79586e-12 -3.67436e-12 0
-3.67436e-12 4.69516e-12 0
0 0 0

TENSORS velocity_gradient double
-1.11461e-14 -5.53257e-14 0
-1.77636e-15 6.92779e-14 0
0 0 0

1.14061e-14 -2.23975e-14 0
-2.57572e-14 -9.68114e-14 0
0 0 0

-1.11461e-14 -2.92073e-14 0
7.10543e-15 3.55271e-14 0
0 0 0

1.14061e-14 -1.05442e-14 0
-3.28626e-14 -8.9706e-14 0
0 0 0

1.21606e-14 1.17617e-14 0
1.95399e-14 1.95399e-14 0
0 0 0

9.26354e-15 1.23988e-14 0
2.66454e-14 -1.77636e-15 0
0 0 0

1.21606e-14 8.81659e-15 0
1.42109e-14 4.26326e-14 0
0 0 0

9.26354e-15 9.64585e-15 0
2.4869e-14 -3.55271e-15 0
0 0 0

6.66003e-15 1.30598e-14 0
2.84217e-14 -1.42109e-14 0
0 0 0

3.98178e-15 1.45657e-14 0
3.10862e-14 -1.15463e-14 0
0 0 0

6.66003e-15 1.05061e-14 0
1.42109e-14 1.42109e-14 0
0 0 0

3.98178e-15 1.15138e-14 0
4.17444e-14 -2.93099e-14 0
0 0 0

5.42231e-16 1.61278e-14 0
3.90799e-14 -1.77636e-14 0
0 0 0

-2.58326e-15 8.71325e-15 0
4.70735e-14 -9.76996e-15 0
0 0 0

5.42231e-16 1.25591e-14 0
2.84217e-14 -2.84217e-14 0
0 0 0

-2.58326e-15 6.91755e-15 0
1.68754e-14 -2.57572e-14 0
0 0 0

-5.88552e-16 -1.15129e-14 0
-3.55271e-15 5.32907e-14 0
0 0 0

7.08483e-15 -3.17626e-15 0
-1.28786e-14 -1.40776e-13 0
0 0 0

-5.88552e-16 -2.24258e-15 0
-2.84217e-14 2.84217e-14 0
0 0 0

7.08483e-15 -2.93701e-16 0
-1.86517e-14 -1.18128e-13 0
0 0 0

4.99746e-15 5.47204e-15 0
-2.4869e-14 4.61853e-14 0
0 0 0

9.09791e-16 5.71003e-15 0
2.35367e-14 9.32587e-15 0
0 0 0

4.99746e-15 1.72804e-15 0
7.10543e-15 6.39488e-14 0
0 0 0

9.09791e-16 5.91373e-16 0
1.15463e-14 2.57572e-14 0
0 0 0

-5.27839e-15 5.95691e-15 0
3.55271e-15 3.55271e-15 0
0 0 0

-1.18949e-14 6.57186e-15 0
-2.26485e-14 -8.43769e-15 0
0 0 0

-5.27839e-15 -5.87782e-16 0
7.10543e-15 -3.55271e-14 0
0 0 0

-1.18949e-14 -2.60028e-16 0
2.66454e-15 -2.57572e-14 0
0 0 0

-1.89502e-14 7.20979e-15 0
-2.13163e-14 -7.10543e-15 0
0 0 0

-2.57401e-14 3.13466e-15 0
3.95239e-14 -3.10862e-15 0
0 0 0

-1.89502e-14 7.99787e-17 0
2.84217e-14 -2.84217e-14 0
0 0 0

-2.57401e-14 -2.63544e-15 0
6.21725e-15 -2.22045e-14 0
0 0 0

-9.84677e-15 5.47711e-15 0
5.32907e-15 4.79616e-14 0
0 0 0

-4.58019e-15 2.42714e-15 0
-2.66454e-15 -1.16351e-13 0
0 0 0

-9.84677e-15 1.16462e-14 0
0 2.84217e-14 0
0 0 0

-4.58019e-15 4.98626e-15 0
2.04281e-14 -1.35891e-13 0
0 0 0

-4.82974e-15 -7.36852e-16 0
-1.42109e-14 5.68434e-14 0
0 0 0

-6.43022e-15 -3.39027e-15 0
-2.13163e-14 7.10543e-15 0
0 0 0

-4.82974e-15 -1.92262e-15 0
-2.13163e-14 2.13163e-14 0
0 0 0

-6.43022e-15 -6.23489e-15 0
-5.59552e-14 1.5099e-14 0
0 0 0

-1.05655e-14 -6.14288e-15 0
-3.37508e-14 -1.95399e-14 0
0 0 0

-1.54008e-14 -6.49829e-15 0
-2.26485e-14 -8.43769e-15 0
0 0 0

-1.05655e-14 -1.07084e-14 0
-1.42109e-14 0 0
0 0 0

-1.54008e-14 -1.21429e-14 0
-8.88178e-16 1.33227e-14 0
0 0 0

-2.1885e-14 -6.86699e-15 0
-2.30926e-14 -8.88178e-15 0
0 0 0

-2.76168e-14 -6.83776e-15 0
1.33227e-15 1.33227e-15 0
0 0 0

-2.1885e-14 -1.36311e-14 0
-1.42109e-14 4.26326e-14 0
0 0 0

-2.76168e-14 -9.47229e-15 0
-1.86517e-14 -4.44089e-15 0
0 0 0

-1.64662e-14 2.45792e-14 0
8.88178e-15 8.88178e-15 0
0 0 0

3.87255e-16 1.04271e-14 0
6.21725e-15 -1.0747e-13 0
0 0 0

-1.64662e-14 4.42763e-14 0
1.42109e-14 7.10543e-14 0
0 0 0

3.87255e-16 1.87496e-14 0
1.33227e-14 -1.14575e-13 0
0 0 0

-1.39984e-16 -4.25409e-15 0
1.42109e-14 2.84217e-14 0
0 0 0

-3.18685e-15 -8.53519e-15 0
7.10543e-15 2.13163e-14 0
0 0 0

-1.39984e-16 -7.73126e-15 0
2.13163e-14 2.13163e-14 0
0 0 0

-3.18685e-15 -1.02912e-14 0
-1.42109e-14 -1.42109e-14 0
0 0 0

-3.60368e-15 -1.29763e-14 0
5.32907e-15 5.32907e-15 0
0 0 0

-3.20901e-15 -1.42203e-14 0
1.46549e-14 -1.37668e-14 0
0 0 0

-3.60368e-15 -1.29468e-14 0
7.10543e-15 -7.10543e-15 0
0 0 0

-3.20901e-15 -1.27303e-14 0
-7.99361e-15 6.21725e-15 0
0 0 0

-5.82766e-16 -1.55107e-14 0
-2.4869e-14 -1.06581e-14 0
0 0 0

2.59463e-15 -8.94226e-15 0
-1.15463e-14 -1.15463e-14 0
0 0 0

-5.82766e-16 -1.25057e-14 0
-2.84217e-14 -1.42109e-14 0
0 0 0

2.59463e-15 -5.24766e-15 0
-3.28626e-14 -4.44089e-15 0
0 0 0

SCALARS active double 1
LOOKUP_TABLE default
1
1
1
1
1
1
1
1
1
1
1
1
1
1
1
1
1
1
1
1
1
1
1
1
1
1
1
1
1
1
1
1
1
1
1
1
1
1
1
1
1
1
1
1
1
1
1
1
1
1
1
1
1
1
1
1
1
1
1
1
1
1
1
1
SCALARS extent double 1
LOOKUP_TABLE default
0.0125
0.0125
0.0125
0.0125
0.0125
0.0125
0.0125
0.0125
0.0125
0.0125
0.0125
0.0125
0.0125
0.0125
0.0125
0.0125
0.0125
0.0125
0.0125
0.0125
0.0125
0.0125
0.0125
0.0125
0.0125
0.0125
0.0125
0.0125
0.0125
0.0125
0.0125
0.0125
0.0125
0.0125
0.0125
0.0125
0.0125
0.0125
0.0125
0.0125
0.0125
0.0125
0.0125
0.0125
0.0125
0.0125
0.0125
0.0125
0.0125
0.0125
0.0125
0.0125
0.0125
0.0125
0.0125
0.0125
0.0125
0.0125
0.0125
0.0125
0.0125
0.0125
0.0125
0.0125
SCALARS pressure double 1
LOOKUP_TABLE default
-3.25033e-11
6.83473e-11
-2.0954e-11
6.43094e-11
-3.25931e-11
1.01947e-11
-1.07269e-11
-7.50215e-12
-1.44483e-11
-2.53848e-11
1.16172e-11
-2.50249e-12
1.76753e-11
-6.88928e-12
2.04595e-11
9.71336e-12
-2.11794e-11
7.28033e-11
-2.40783e-11
6.50638e-11
-3.43115e-11
-5.62593e-12
-1.41573e-11
-9.66651e-12
-1.94662e-11
-1.25682e-11
4.05706e-13
-2.39239e-11
1.69708e-11
1.01931e-11
3.83045e-11
4.57526e-12
-4.06679e-11
8.15681e-11
-7.22908e-12
6.00548e-11
-3.86563e-11
7.75858e-13
-3.19709e-11
1.70994e-12
-1.71642e-11
9.61815e-12
-2.13482e-11
-6.73629e-12
1.71411e-11
1.23898e-11
6.7581e-12
-3.74842e-12
-2.59451e-11
6.66051e-11
-2.93745e-11
6.69573e-11
-2.52894e-11
-7.69483e-12
-1.4845e-11
1.0453e-11
-1.34989e-11
2.63422e-11
-1.54438e-11
-1.54754e-11
2.01567e-11
2.09187e-11
3.13503e-13
-4.24551e-12
SCALARS density double 1
LOOKUP_TABLE default
1000
1000
1000
1000
1000
1000
1000
1000
1000
1000
1000
1000
1000
1000
1000
1000
1000
1000
1000
1000
1000
1000
1000
1000
1000
1000
1000
1000
1000
1000
1000
1000
1000
1000
1000
1000
1000
1000
1000
1000
1000
1000
1000
1000
1000
1000
1000
1000
1000
1000
1000
1000
1000
1000
1000
1000
1000
1000
1000
1000
1000
1000
1000
1000
