# vtk DataFile Version 3.0
Frame: 49, Time: 0.834
ASCII
DATASET UNSTRUCTURED_GRID
POINTS 64 double
0.453172 0.340647 0 
0.470852 0.321494 0 
0.433442 0.320117 0 
0.452549 0.300728 0 
0.48754 0.302751 0 
0.505313 0.284877 0 
0.470608 0.283636 0 
0.488755 0.264238 0 
0.523862 0.267761 0 
0.540327 0.248532 0 
0.50621 0.246224 0 
0.523878 0.228834 0 
0.5586 0.230945 0 
0.577655 0.213807 0 
0.541789 0.211914 0 
0.560264 0.193975 0 
0.41686 0.302156 0 
0.434538 0.282712 0 
0.397914 0.285294 0 
0.417149 0.265424 0 
0.452212 0.265091 0 
0.469746 0.246935 0 
0.433383 0.247785 0 
0.451252 0.229281 0 
0.487154 0.228333 0 
0.504298 0.210971 0 
0.46925 0.21106 0 
0.485758 0.192385 0 
0.523357 0.193919 0 
0.540735 0.176184 0 
0.504047 0.175136 0 
0.521578 0.157162 0 
0.381767 0.26682 0 
0.398352 0.246643 0 
0.364702 0.248386 0 
0.381136 0.22829 0 
0.415966 0.229411 0 
0.433075 0.210109 0 
0.398991 0.209493 0 
0.416192 0.191409 0 
0.450235 0.191538 0 
0.467698 0.173566 0 
0.431267 0.173154 0 
0.448639 0.156278 0 
0.484663 0.155726 0 
0.502053 0.137962 0 
0.465563 0.137387 0 
0.482514 0.119121 0 
0.348342 0.231076 0 
0.365194 0.210687 0 
0.334289 0.214389 0 
0.350242 0.19177 0 
0.382326 0.191993 0 
0.397813 0.172608 0 
0.364479 0.173373 0 
0.377529 0.153408 0 
0.413537 0.154558 0 
0.429981 0.137567 0 
0.392817 0.134963 0 
0.410116 0.117172 0 
0.447292 0.118455 0 
0.464694 0.100554 0 
0.426472 0.0992553 0 
0.446801 0.0825011 0 
CELLS 64 128
1 0
1 1
1 2
1 3
1 4
1 5
1 6
1 7
1 8
1 9
1 10
1 11
1 12
1 13
1 14
1 15
1 16
1 17
1 18
1 19
1 20
1 21
1 22
1 23
1 24
1 25
1 26
1 27
1 28
1 29
1 30
1 31
1 32
1 33
1 34
1 35
1 36
1 37
1 38
1 39
1 40
1 41
1 42
1 43
1 44
1 45
1 46
1 47
1 48
1 49
1 50
1 51
1 52
1 53
1 54
1 55
1 56
1 57
1 58
1 59
1 60
1 61
1 62
1 63
CELL_TYPES 64
1
1
1
1
1
1
1
1
1
1
1
1
1
1
1
1
1
1
1
1
1
1
1
1
1
1
1
1
1
1
1
1
1
1
1
1
1
1
1
1
1
1
1
1
1
1
1
1
1
1
1
1
1
1
1
1
1
1
1
1
1
1
1
1
POINT_DATA 64
VECTORS displacement double
-0.0593279 -0.271853 0 
-0.0416479 -0.316006 0 
-0.104058 -0.292383 0 
-0.0849506 -0.336772 0 
-0.02496 -0.359749 0 
-0.00718723 -0.402623 0 
-0.0668916 -0.378864 0 
-0.0487446 -0.423262 0 
0.0113621 -0.444739 0 
0.0278268 -0.488968 0 
-0.0312904 -0.466276 0 
-0.0136221 -0.508666 0 
0.0461002 -0.531555 0 
0.0651547 -0.573693 0 
0.00428894 -0.550586 0 
0.0227637 -0.593525 0 
-0.14564 -0.310344 0 
-0.127962 -0.354788 0 
-0.189586 -0.327206 0 
-0.170351 -0.372076 0 
-0.110288 -0.397409 0 
-0.092754 -0.440565 0 
-0.154117 -0.414715 0 
-0.136248 -0.458219 0 
-0.075346 -0.484167 0 
-0.0582016 -0.526529 0 
-0.11825 -0.50144 0 
-0.101742 -0.545115 0 
-0.0391435 -0.568581 0 
-0.0217654 -0.611316 0 
-0.0834532 -0.587364 0 
-0.065922 -0.630338 0 
-0.230733 -0.34568 0 
-0.214148 -0.390857 0 
-0.272798 -0.364114 0 
-0.256364 -0.40921 0 
-0.196534 -0.433089 0 
-0.179425 -0.477391 0 
-0.238509 -0.453007 0 
-0.221308 -0.496091 0 
-0.162265 -0.520962 0 
-0.144802 -0.563934 0 
-0.206233 -0.539346 0 
-0.188861 -0.581222 0 
-0.127837 -0.606774 0 
-0.110447 -0.649538 0 
-0.171937 -0.625113 0 
-0.154986 -0.668379 0 
-0.314158 -0.381424 0 
-0.297306 -0.426813 0 
-0.353211 -0.398111 0 
-0.337258 -0.44573 0 
-0.280174 -0.470507 0 
-0.264687 -0.514892 0 
-0.323021 -0.489127 0 
-0.309971 -0.534092 0 
-0.248963 -0.557942 0 
-0.232519 -0.599933 0 
-0.294683 -0.577537 0 
-0.277384 -0.620328 0 
-0.215208 -0.644045 0 
-0.197806 -0.686946 0 
-0.261028 -0.663245 0 
-0.240699 -0.704999 0 
VECTORS velocity double
-2.22809 0.605763 0 
-2.06894 1.06574 0 
-2.25036 0.0505171 0 
-1.66272 0.844315 0 
-1.87092 0.86786 0 
-1.64874 1.30994 0 
-1.43173 0.597965 0 
-1.08994 0.591178 0 
-1.59359 1.45087 0 
-1.11886 1.28633 0 
-1.29494 1.37894 0 
-1.13178 0.869795 0 
-1.83956 1.6414 0 
-1.16006 1.7059 0 
-1.09646 0.929424 0 
-0.589455 1.42307 0 
-1.77078 0.00462999 0 
-1.01967 0.3097 0 
-1.61116 0.0677147 0 
-1.24963 0.542955 0 
-1.44599 0.655112 0 
-1.01308 0.383188 0 
-1.51577 0.313832 0 
-1.17468 0.620517 0 
-1.12166 0.910318 0 
-0.847802 0.998522 0 
-1.18648 0.727631 0 
-0.822907 0.703562 0 
-0.843832 0.971187 0 
-0.537766 1.40993 0 
-0.85789 1.16878 0 
-0.668157 1.37447 0 
-1.48684 -0.329642 0 
-0.907152 0.414495 0 
-1.46681 -0.460491 0 
-0.76155 0.111541 0 
-0.892331 -0.369463 0 
-0.604879 -0.0421089 0 
-0.809518 0.2082 0 
-0.958436 0.305572 0 
-0.252598 0.37924 0 
-0.341604 0.503528 0 
-0.745033 -0.076174 0 
-0.423974 0.465559 0 
-0.714949 0.316286 0 
0.151643 0.913366 0 
-0.688422 0.553958 0 
-0.0559411 0.754005 0 
-1.58997 -0.554792 0 
-0.738215 -0.180155 0 
-0.242487 -0.647387 0 
0.0878665 -0.899659 0 
-0.281776 0.0716028 0 
-0.402046 0.137249 0 
-0.227946 -0.577954 0 
-0.497472 -0.251417 0 
-0.00345352 -0.00964831 0 
-0.146155 0.263481 0 
-0.13866 -0.258688 0 
0.0504756 -0.424716 0 
-0.524354 0.133931 0 
0.0936405 0.814733 0 
0.190684 -0.218737 0 
0.671963 0.0949743 0 
SCALARS mass double 1
LOOKUP_TABLE default
0.625
0.625
0.625
0.625
0.625
0.625
0.625
0.625
0.625
0.625
0.625
0.625
0.625
0.625
0.625
0.625
0.625
0.625
0.625
0.625
0.625
0.625
0.625
0.625
0.625
0.625
0.625
0.625
0.625
0.625
0.625
0.625
0.625
0.625
0.625
0.625
0.625
0.625
0.625
0.625
0.625
0.625
0.625
0.625
0.625
0.625
0.625
0.625
0.625
0.625
0.625
0.625
0.625
0.625
0.625
0.625
0.625
0.625
0.625
0.625
0.625
0.625
0.625
0.625
SCALARS volume double 1
LOOKUP_TABLE default
0.000611978
0.000627086
0.000626576
0.000638783
0.000613311
0.000599174
0.000611199
0.000607077
0.000626039
0.000614027
0.000636593
0.000621862
0.000620883
0.000627531
0.000599341
0.000625556
0.000621246
0.000607961
0.000623461
0.000616882
0.000604294
0.000640464
0.000624094
0.000604883
0.000588349
0.000630677
0.00060986
0.000627609
0.000625065
0.000617767
0.000624415
0.000634944
0.000608154
0.000599595
0.000615502
0.000601858
0.000591807
0.000631917
0.00059065
0.000593649
0.000633499
0.000622719
0.000603135
0.000614778
0.000608438
0.00063461
0.000640886
0.000622017
0.000591714
0.000564248
0.000540628
0.000541955
0.000562048
0.000613197
0.000562869
0.000634689
0.000600199
0.000622567
0.000604346
0.000613243
0.000640289
0.000625234
0.000597128
0.000632046
VECTORS momentum double
-1.39256 0.378602 0 
-1.29309 0.66609 0 
-1.40647 0.0315732 0 
-1.0392 0.527697 0 
-1.16933 0.542413 0 
-1.03046 0.818715 0 
-0.894833 0.373728 0 
-0.681214 0.369487 0 
-0.995993 0.906793 0 
-0.699286 0.803954 0 
-0.80934 0.861839 0 
-0.70736 0.543622 0 
-1.14972 1.02588 0 
-0.72504 1.06619 0 
-0.685289 0.58089 0 
-0.368409 0.889421 0 
-1.10674 0.00289375 0 
-0.637294 0.193562 0 
-1.00697 0.0423217 0 
-0.781019 0.339347 0 
-0.903745 0.409445 0 
-0.633178 0.239493 0 
-0.947357 0.196145 0 
-0.734173 0.387823 0 
-0.701039 0.568949 0 
-0.529876 0.624077 0 
-0.741551 0.454769 0 
-0.514317 0.439726 0 
-0.527395 0.606992 0 
-0.336104 0.881205 0 
-0.536181 0.730488 0 
-0.417598 0.859041 0 
-0.929278 -0.206026 0 
-0.56697 0.259059 0 
-0.916759 -0.287807 0 
-0.475969 0.0697133 0 
-0.557707 -0.230914 0 
-0.37805 -0.0263181 0 
-0.505949 0.130125 0 
-0.599022 0.190983 0 
-0.157874 0.237025 0 
-0.213502 0.314705 0 
-0.465645 -0.0476087 0 
-0.264984 0.290975 0 
-0.446843 0.197679 0 
0.0947767 0.570854 0 
-0.430264 0.346223 0 
-0.0349632 0.471253 0 
-0.993733 -0.346745 0 
-0.461384 -0.112597 0 
-0.151554 -0.404617 0 
0.0549166 -0.562287 0 
-0.17611 0.0447518 0 
-0.251279 0.0857804 0 
-0.142466 -0.361221 0 
-0.31092 -0.157136 0 
-0.00215845 -0.00603019 0 
-0.0913468 0.164676 0 
-0.0866624 -0.16168 0 
0.0315472 -0.265447 0 
-0.327721 0.083707 0 
0.0585253 0.509208 0 
0.119177 -0.136711 0 
0.419977 0.0593589 0 
VECTORS body_force double
0 -9.81 0 
0 -9.81 0 
0 -9.81 0 
0 -9.81 0 
0 -9.81 0 
0 -9.81 0 
0 -9.81 0 
0 -9.81 0 
0 -9.81 0 
0 -9.81 0 
0 -9.81 0 
0 -9.81 0 
0 -9.81 0 
0 -9.81 0 
0 -9.81 0 
0 -9.81 0 
0 -9.81 0 
0 -9.81 0 
0 -9.81 0 
0 -9.81 0 
0 -9.81 0 
0 -9.81 0 
0 -9.81 0 
0 -9.81 0 
0 -9.81 0 
0 -9.81 0 
0 -9.81 0 
0 -9.81 0 
0 -9.81 0 
0 -9.81 0 
0 -9.81 0 
0 -9.81 0 
0 -9.81 0 
0 -9.81 0 
0 -9.81 0 
0 -9.81 0 
0 -9.81 0 
0 -9.81 0 
0 -9.81 0 
0 -9.81 0 
0 -9.81 0 
0 -9.81 0 
0 -9.81 0 
0 -9.81 0 
0 -9.81 0 
0 -9.81 0 
0 -9.81 0 
0 -9.81 0 
0 -9.81 0 
0 -9.81 0 
0 -9.81 0 
0 -9.81 0 
0 -9.81 0 
0 -9.81 0 
0 -9.81 0 
0 -9.81 0 
0 -9.81 0 
0 -9.81 0 
0 -9.81 0 
0 -9.81 0 
0 -9.81 0 
0 -9.81 0 
0 -9.81 0 
0 -9.81 0 
TENSORS cauchy_stress double
17.8733 766.116 0
766.116 -4066.89 0
0 0 0

1414.88 130.559 0
130.559 -774.109 0
0 0 0

-1883.75 -51.4083 0
-51.4083 2368.03 0
0 0 0

-50.0906 193.26 0
193.26 4244.78 0
0 0 0

-2042.93 -77.5767 0
-77.5767 -1587.72 0
0 0 0

-1559.73 1346.56 0
1346.56 -6555.44 0
0 0 0

-4332.49 502.732 0
502.732 38.3334 0
0 0 0

-3891.19 -78.7508 0
-78.7508 -1704.12 0
0 0 0

-407.233 1814.37 0
1814.37 726.715 0
0 0 0

-3981.82 1351.53 0
1351.53 575.611 0
0 0 0

-284.559 2758.18 0
2758.18 3818.98 0
0 0 0

-2771.79 2559.17 0
2559.17 1803.88 0
0 0 0

676.579 624.154 0
624.154 -1947.43 0
0 0 0

-901.199 -516.787 0
-516.787 1678.28 0
0 0 0

-3639.9 618.019 0
618.019 -4421.93 0
0 0 0

346.757 775.817 0
775.817 -175.625 0
0 0 0

362.707 1218.72 0
1218.72 -1521.41 0
0 0 0

-1255.75 -1128.98 0
-1128.98 -4059.9 0
0 0 0

865.77 -3508.14 0
-3508.14 -1339.98 0
0 0 0

-2605.52 1488.98 0
1488.98 91.2649 0
0 0 0

-2605.27 2013.11 0
2013.11 -3873.59 0
0 0 0

2457.76 1736.72 0
1736.72 2242.58 0
0 0 0

-3390.42 -805.65 0
-805.65 3111.37 0
0 0 0

-2562.01 1281.81 0
1281.81 -3729.61 0
0 0 0

-5818.06 52.8165 0
52.8165 -5803.43 0
0 0 0

959.793 809.426 0
809.426 779.065 0
0 0 0

-3732.62 1982.8 0
1982.8 -983.305 0
0 0 0

1234.41 653.409 0
653.409 -433.41 0
0 0 0

447.108 2416.76 0
2416.76 -427.142 0
0 0 0

-2938.28 3058.18 0
3058.18 699.629 0
0 0 0

4252.83 2497.75 0
2497.75 -4432.95 0
0 0 0

695.472 1989.98 0
1989.98 2340.02 0
0 0 0

-2911.66 403.252 0
403.252 -2342.77 0
0 0 0

-8836.55 -100.579 0
-100.579 856.296 0
0 0 0

-2966.92 -4188.72 0
-4188.72 22.0979 0
0 0 0

-4460.01 -2225.06 0
-2225.06 -2795.68 0
0 0 0

-6829.76 1188.14 0
1188.14 -3664.68 0
0 0 0

-3117.36 -3269.27 0
-3269.27 5233.93 0
0 0 0

-7204.18 -678.927 0
-678.927 -3666.46 0
0 0 0

-9563.87 6212.24 0
6212.24 -332.901 0
0 0 0

-948.021 3904.97 0
3904.97 3545.34 0
0 0 0

-4063.8 215.285 0
215.285 3360.78 0
0 0 0

-5038.22 2421.98 0
2421.98 -1810.1 0
0 0 0

-2415.21 2806.6 0
2806.6 -756.137 0
0 0 0

-5220.12 3471.75 0
3471.75 55.3765 0
0 0 0

562.105 2026.53 0
2026.53 2372.28 0
0 0 0

4415.85 1375.91 0
1375.91 411.032 0
0 0 0

-974.042 2201.8 0
2201.8 54.1151 0
0 0 0

-10132.8 -5934.28 0
-5934.28 -391.905 0
0 0 0

-14949.2 -2554.92 0
-2554.92 -4715.8 0
0 0 0

-26967.3 -14486.2 0
-14486.2 -921.062 0
0 0 0

-21764.3 -246.858 0
-246.858 -5652.64 0
0 0 0

-15709.7 2532.51 0
2532.51 -4706.46 0
0 0 0

-5667.94 3486.19 0
3486.19 2001.55 0
0 0 0

-14378.7 5667.13 0
5667.13 -5756.81 0
0 0 0

-1614.37 3756.91 0
3756.91 4572.8 0
0 0 0

-6126.8 5595.12 0
5595.12 -1659.88 0
0 0 0

-2133.13 3089 0
3089 1383.17 0
0 0 0

-3655.13 4209.61 0
4209.61 -2807.21 0
0 0 0

-4225.21 3983.65 0
3983.65 573.256 0
0 0 0

5379.84 2458.14 0
2458.14 -732.153 0
0 0 0

-1264.69 732.764 0
732.764 1336.65 0
0 0 0

-4129.1 3377.64 0
3377.64 -4644.06 0
0 0 0

-390.632 630.802 0
630.802 2546.41 0
0 0 0

TENSORS velocity_gradient double
1.22143 -9.30339 0
7.68635 0.101803 0
0 0 0

0.849885 -8.90496 0
8.31132 -0.620624 0
0 0 0

-0.581415 -10.339 0
9.49255 -0.0581891 0
0 0 0

0.0735624 -9.37989 0
9.10238 0.966642 0
0 0 0

0.435298 -8.56032 0
9.08916 -0.479734 0
0 0 0

0.623177 -7.85814 0
6.596 0.715998 0
0 0 0

-0.0236644 -9.00733 0
9.62087 1.51062 0
0 0 0

-0.511781 -8.55841 0
10.088 1.08096 0
0 0 0

-0.51883 -6.6371 0
6.92016 0.369407 0
0 0 0

-1.48404 -6.73755 0
7.09896 1.13998 0
0 0 0

-1.5481 -7.14838 0
7.09526 0.787021 0
0 0 0

-1.52621 -7.13334 0
6.73349 1.19155 0
0 0 0

-2.95489 -7.31905 0
7.37104 1.33937 0
0 0 0

-2.81266 -7.47539 0
8.09598 0.542501 0
0 0 0

-1.45481 -7.2081 0
6.35235 1.59066 0
0 0 0

-2.26476 -8.94062 0
7.63591 0.340412 0
0 0 0

-1.55714 -10.6228 0
8.93929 -0.158452 0
0 0 0

-1.60877 -9.37048 0
8.09347 1.38351 0
0 0 0

-1.29523 -8.77346 0
8.75029 -0.0927637 0
0 0 0

-1.37632 -9.13209 0
7.28858 0.55807 0
0 0 0

-0.672197 -9.41921 0
9.45693 1.85913 0
0 0 0

-1.03238 -8.45104 0
10.5156 1.45857 0
0 0 0

-1.25604 -9.40853 0
6.62579 1.72003 0
0 0 0

-1.67369 -9.06095 0
9.532 1.88479 0
0 0 0

-1.83117 -7.54455 0
11.0318 0.958209 0
0 0 0

-1.54126 -7.07391 0
6.74049 0.773884 0
0 0 0

-2.57858 -8.33711 0
11.5052 1.46023 0
0 0 0

-2.73625 -8.1483 0
11.5118 1.45934 0
0 0 0

-1.46303 -8.4522 0
6.55093 0.431198 0
0 0 0

-1.59566 -8.32405 0
7.64499 -0.625853 0
0 0 0

-1.66315 -8.56406 0
8.08412 1.55346 0
0 0 0

-1.7284 -8.4956 0
8.78562 0.606101 0
0 0 0

-0.225421 -8.1599 0
9.62547 0.105151 0
0 0 0

-0.524262 -9.80877 0
8.40515 1.20026 0
0 0 0

0.121979 -10.4064 0
9.91878 0.856816 0
0 0 0

-1.02477 -11.1694 0
9.69941 1.32187 0
0 0 0

-1.45636 -9.67547 0
6.4024 1.74418 0
0 0 0

-1.72303 -9.44214 0
6.24098 1.88542 0
0 0 0

-2.05473 -10.0962 0
7.88672 1.577 0
0 0 0

-2.0591 -7.59742 0
6.56704 1.77461 0
0 0 0

-2.43971 -7.02393 0
9.3997 0.466073 0
0 0 0

-2.06741 -7.49187 0
10.8812 0.840369 0
0 0 0

-2.48107 -7.25281 0
7.42604 1.07308 0
0 0 0

-2.26293 -7.04699 0
9.10819 0.507457 0
0 0 0

-1.43996 -8.16235 0
10.2965 1.41244 0
0 0 0

-0.647647 -9.26323 0
7.95987 2.05127 0
0 0 0

-1.19801 -8.69889 0
10.2114 1.58065 0
0 0 0

-1.14048 -8.75142 0
10.3682 1.43742 0
0 0 0

-3.67422 -13.3653 0
7.48459 1.07034 0
0 0 0

-2.24925 -12.3058 0
9.42632 1.06843 0
0 0 0

-6.57409 -14.0124 0
6.68945 1.71587 0
0 0 0

-4.4733 -4.96635 0
8.57231 -0.2941 0
0 0 0

-2.52373 -6.90612 0
8.72311 1.40574 0
0 0 0

-1.72617 -7.68073 0
7.41947 2.18676 0
0 0 0

-1.36138 -5.77277 0
7.4763 0.190031 0
0 0 0

0.000354175 -5.83549 0
5.86108 -0.0023906 0
0 0 0

-2.84121 -7.54541 0
8.25227 1.90364 0
0 0 0

-2.36464 -7.63536 0
8.54768 1.78838 0
0 0 0

2.1954 -5.11368 0
1.90782 0.0335582 0
0 0 0

-1.32926 -6.60726 0
8.62169 1.86187 0
0 0 0

-1.30824 -8.42856 0
9.13273 1.71646 0
0 0 0

-1.27318 -9.47728 0
10.4402 1.36165 0
0 0 0

-0.453081 -9.04057 0
8.6582 1.19752 0
0 0 0

-0.313143 -10.9034 0
8.96011 0.843804 0
0 0 0

SCALARS active double 1
LOOKUP_TABLE default
1
1
1
1
1
1
1
1
1
1
1
1
1
1
1
1
1
1
1
1
1
1
1
1
1
1
1
1
1
1
1
1
1
1
1
1
1
1
1
1
1
1
1
1
1
1
1
1
1
1
1
1
1
1
1
1
1
1
1
1
1
1
1
1
SCALARS extent double 1
LOOKUP_TABLE default
0.0125
0.0125
0.0125
0.0125
0.0125
0.0125
0.0125
0.0125
0.0125
0.0125
0.0125
0.0125
0.0125
0.0125
0.0125
0.0125
0.0125
0.0125
0.0125
0.0125
0.0125
0.0125
0.0125
0.0125
0.0125
0.0125
0.0125
0.0125
0.0125
0.0125
0.0125
0.0125
0.0125
0.0125
0.0125
0.0125
0.0125
0.0125
0.0125
0.0125
0.0125
0.0125
0.0125
0.0125
0.0125
0.0125
0.0125
0.0125
0.0125
0.0125
0.0125
0.0125
0.0125
0.0125
0.0125
0.0125
0.0125
0.0125
0.0125
0.0125
0.0125
0.0125
0.0125
0.0125
SCALARS pressure double 1
LOOKUP_TABLE default
2024.51
-320.383
-242.142
-2097.34
1815.33
4057.59
2147.08
2797.65
-159.741
1703.1
-1767.21
483.955
635.426
-388.543
4030.92
-85.5658
579.352
2657.83
237.105
1257.13
3239.43
-2350.17
139.525
3145.81
5810.74
-869.429
2357.96
-400.501
-9.98302
1119.32
90.0632
-1517.74
2627.22
3990.12
1472.41
3627.84
5247.22
-1058.28
5435.32
4948.38
-1298.66
351.511
3424.16
1585.67
2582.37
-1467.19
-2413.44
459.964
5262.34
9832.49
13944.2
13708.5
10208.1
1833.19
10067.8
-1479.22
3893.34
374.981
3231.17
1825.98
-2323.84
-35.979
4386.58
-1077.89
SCALARS density double 1
LOOKUP_TABLE default
1021.28
996.674
997.485
978.424
1019.06
1043.1
1022.58
1029.52
998.34
1017.87
981.789
1005.05
1006.63
995.967
1042.81
999.111
1006.04
1028.03
1002.47
1013.16
1034.26
975.855
1001.45
1033.26
1062.3
990.999
1024.83
995.843
999.896
1011.71
1000.94
984.339
1027.7
1042.37
1015.43
1038.45
1056.09
989.054
1058.16
1052.81
986.585
1003.66
1036.25
1016.63
1027.22
984.857
975.213
1004.8
1056.25
1107.67
1156.06
1153.23
1112
1019.25
1110.38
984.734
1041.32
1003.91
1034.18
1019.17
976.122
999.626
1046.68
988.853
