# vtk DataFile Version 3.0
Frame: 39, Time: 0.667
ASCII
DATASET UNSTRUCTURED_GRID
POINTS 64 double
0.0626988 0.0538524 0 
0.060832 0.0784609 0 
0.0869471 0.056266 0 
0.0847329 0.0811558 0 
0.0563552 0.102635 0 
0.0534831 0.126862 0 
0.0817886 0.105532 0 
0.0788415 0.130344 0 
0.0485044 0.150285 0 
0.0441101 0.175717 0 
0.0745794 0.155101 0 
0.068775 0.179164 0 
0.0433638 0.201573 0 
0.0397441 0.225942 0 
0.0672802 0.205436 0 
0.0628792 0.230266 0 
0.111282 0.0597851 0 
0.107817 0.0850611 0 
0.134666 0.0610716 0 
0.131174 0.0862091 0 
0.104761 0.109926 0 
0.10088 0.134577 0 
0.129745 0.111847 0 
0.125597 0.13645 0 
0.096796 0.160066 0 
0.0912628 0.184535 0 
0.122035 0.162507 0 
0.117614 0.187176 0 
0.0894822 0.210105 0 
0.0865993 0.2369 0 
0.114956 0.212435 0 
0.111213 0.237378 0 
0.158169 0.0617048 0 
0.153212 0.0873761 0 
0.184537 0.0667322 0 
0.177516 0.091208 0 
0.152816 0.113734 0 
0.149011 0.138826 0 
0.177312 0.116933 0 
0.173019 0.142149 0 
0.146578 0.16462 0 
0.143405 0.189637 0 
0.170683 0.167905 0 
0.168257 0.192575 0 
0.139704 0.21592 0 
0.136281 0.240047 0 
0.164908 0.217459 0 
0.162221 0.242149 0 
0.209738 0.0691449 0 
0.20127 0.0942394 0 
0.233768 0.0708677 0 
0.225669 0.0960502 0 
0.201682 0.11888 0 
0.197666 0.14356 0 
0.227246 0.11997 0 
0.222981 0.145351 0 
0.195023 0.168963 0 
0.193593 0.194402 0 
0.21975 0.171926 0 
0.219086 0.198056 0 
0.189803 0.219406 0 
0.187437 0.243348 0 
0.215188 0.223831 0 
0.2143 0.248328 0 
CELLS 64 128
1 0
1 1
1 2
1 3
1 4
1 5
1 6
1 7
1 8
1 9
1 10
1 11
1 12
1 13
1 14
1 15
1 16
1 17
1 18
1 19
1 20
1 21
1 22
1 23
1 24
1 25
1 26
1 27
1 28
1 29
1 30
1 31
1 32
1 33
1 34
1 35
1 36
1 37
1 38
1 39
1 40
1 41
1 42
1 43
1 44
1 45
1 46
1 47
1 48
1 49
1 50
1 51
1 52
1 53
1 54
1 55
1 56
1 57
1 58
1 59
1 60
1 61
1 62
1 63
CELL_TYPES 64
1
1
1
1
1
1
1
1
1
1
1
1
1
1
1
1
1
1
1
1
1
1
1
1
1
1
1
1
1
1
1
1
1
1
1
1
1
1
1
1
1
1
1
1
1
1
1
1
1
1
1
1
1
1
1
1
1
1
1
1
1
1
1
1
POINT_DATA 64
VECTORS displacement double
-0.349801 -0.358648 0 
-0.351668 -0.359039 0 
-0.350553 -0.356234 0 
-0.352767 -0.356344 0 
-0.356145 -0.359865 0 
-0.359017 -0.360638 0 
-0.355711 -0.356968 0 
-0.358658 -0.357156 0 
-0.363996 -0.362215 0 
-0.36839 -0.361783 0 
-0.362921 -0.357399 0 
-0.368725 -0.358336 0 
-0.369136 -0.360927 0 
-0.372756 -0.361558 0 
-0.37022 -0.357064 0 
-0.374621 -0.357234 0 
-0.351218 -0.352715 0 
-0.354683 -0.352439 0 
-0.352834 -0.351428 0 
-0.356326 -0.351291 0 
-0.357739 -0.352574 0 
-0.36162 -0.352923 0 
-0.357755 -0.350653 0 
-0.361903 -0.35105 0 
-0.365704 -0.352434 0 
-0.371237 -0.352965 0 
-0.365465 -0.349993 0 
-0.369886 -0.350324 0 
-0.373018 -0.352395 0 
-0.375901 -0.3506 0 
-0.372544 -0.350065 0 
-0.376287 -0.350122 0 
-0.354331 -0.350795 0 
-0.359288 -0.350124 0 
-0.352963 -0.345768 0 
-0.359984 -0.346292 0 
-0.359684 -0.348766 0 
-0.363489 -0.348674 0 
-0.360188 -0.345567 0 
-0.364481 -0.345351 0 
-0.365922 -0.34788 0 
-0.369095 -0.347863 0 
-0.366817 -0.344595 0 
-0.369243 -0.344925 0 
-0.372796 -0.34658 0 
-0.376219 -0.347453 0 
-0.372592 -0.345041 0 
-0.375279 -0.345351 0 
-0.352762 -0.343355 0 
-0.36123 -0.343261 0 
-0.353732 -0.341632 0 
-0.361831 -0.34145 0 
-0.360818 -0.34362 0 
-0.364834 -0.34394 0 
-0.360254 -0.34253 0 
-0.364519 -0.342149 0 
-0.367477 -0.343537 0 
-0.368907 -0.343098 0 
-0.36775 -0.340574 0 
-0.368414 -0.339444 0 
-0.372697 -0.343094 0 
-0.375063 -0.344152 0 
-0.372312 -0.338669 0 
-0.3732 -0.339172 0 
VECTORS velocity double
-0.650926 0.390223 0 
-0.636704 1.42354 0 
-1.07158 1.0965 0 
-1.29971 1.2206 0 
-0.820132 0.605523 0 
-0.696254 0.615973 0 
-0.782131 0.578894 0 
-0.712664 0.977623 0 
-0.555034 0.52849 0 
-0.639728 0.611835 0 
-0.750356 0.900819 0 
-0.462497 0.519008 0 
0.0105316 0.678575 0 
-0.458836 0.994814 0 
-0.134434 0.917095 0 
-0.189719 1.0787 0 
-0.520369 0.775904 0 
-1.03366 1.11912 0 
-0.555536 1.12536 0 
-0.852153 1.47981 0 
-0.832019 0.450544 0 
-0.853838 0.667367 0 
-0.842311 0.750161 0 
-1.05554 0.700081 0 
-0.952878 0.762446 0 
-0.592871 0.750741 0 
-1.06278 0.907272 0 
-0.798547 0.851825 0 
-0.584328 1.23275 0 
-0.632454 0.921918 0 
-0.738287 1.26002 0 
-0.62861 0.615362 0 
-0.733744 1.33259 0 
-1.38235 1.40617 0 
-0.944743 1.42842 0 
-1.21879 1.80834 0 
-1.23899 0.887288 0 
-1.05948 0.978124 0 
-0.966711 0.990466 0 
-0.922955 1.25069 0 
-1.12763 0.874923 0 
-0.615783 0.719275 0 
-1.23565 1.21272 0 
-0.706508 0.975375 0 
-0.805291 0.619995 0 
-0.607352 0.517299 0 
-0.8355 0.958761 0 
-0.548402 0.863569 0 
-0.753196 0.921867 0 
-0.914267 1.65294 0 
-0.862013 0.916065 0 
-1.22833 1.10926 0 
-1.16012 0.518525 0 
-0.841085 0.755691 0 
-0.939125 0.62819 0 
-0.962505 0.526453 0 
-0.961354 1.06121 0 
-0.661334 0.547002 0 
-1.15126 0.698871 0 
-1.02081 0.499639 0 
-0.888733 0.811596 0 
-0.622306 0.566965 0 
-0.706669 0.666524 0 
-0.498031 0.876986 0 
SCALARS mass double 1
LOOKUP_TABLE default
0.625
0.625
0.625
0.625
0.625
0.625
0.625
0.625
0.625
0.625
0.625
0.625
0.625
0.625
0.625
0.625
0.625
0.625
0.625
0.625
0.625
0.625
0.625
0.625
0.625
0.625
0.625
0.625
0.625
0.625
0.625
0.625
0.625
0.625
0.625
0.625
0.625
0.625
0.625
0.625
0.625
0.625
0.625
0.625
0.625
0.625
0.625
0.625
0.625
0.625
0.625
0.625
0.625
0.625
0.625
0.625
0.625
0.625
0.625
0.625
0.625
0.625
0.625
0.625
SCALARS volume double 1
LOOKUP_TABLE default
0.000652228
0.000633474
0.000597068
0.000611087
0.000619615
0.000615791
0.000608847
0.000612865
0.00058553
0.000561283
0.000614189
0.000634471
0.000545451
0.000522485
0.000622579
0.00061966
0.000641977
0.000624009
0.000613836
0.000610985
0.000608139
0.000626158
0.000624218
0.000626993
0.000623838
0.000598102
0.000629613
0.000656267
0.000630217
0.000601846
0.000603696
0.000630983
0.000616088
0.000586442
0.000616551
0.00062466
0.000636591
0.000628204
0.000643442
0.000612968
0.000649895
0.000635705
0.000672684
0.000597213
0.000628803
0.000623175
0.000634139
0.000622403
0.000627034
0.000621755
0.000622262
0.000645533
0.000612881
0.000630923
0.000640095
0.00063502
0.000624223
0.000629349
0.000645651
0.000629848
0.000625775
0.000644037
0.000627251
0.000638975
VECTORS momentum double
-0.406828 0.24389 0 
-0.39794 0.889712 0 
-0.66974 0.685313 0 
-0.812319 0.762873 0 
-0.512582 0.378452 0 
-0.435159 0.384983 0 
-0.488832 0.361809 0 
-0.445415 0.611015 0 
-0.346896 0.330307 0 
-0.39983 0.382397 0 
-0.468972 0.563012 0 
-0.289061 0.32438 0 
0.00658225 0.424109 0 
-0.286773 0.621759 0 
-0.084021 0.573184 0 
-0.118574 0.674189 0 
-0.325231 0.48494 0 
-0.646037 0.699447 0 
-0.34721 0.703347 0 
-0.532595 0.924882 0 
-0.520012 0.28159 0 
-0.533649 0.417105 0 
-0.526444 0.46885 0 
-0.659713 0.43755 0 
-0.595549 0.476528 0 
-0.370545 0.469213 0 
-0.664235 0.567045 0 
-0.499092 0.532391 0 
-0.365205 0.770472 0 
-0.395284 0.576199 0 
-0.461429 0.787515 0 
-0.392881 0.384601 0 
-0.45859 0.832868 0 
-0.863971 0.878857 0 
-0.590464 0.892761 0 
-0.761745 1.13021 0 
-0.77437 0.554555 0 
-0.662175 0.611328 0 
-0.604195 0.619041 0 
-0.576847 0.781681 0 
-0.704768 0.546827 0 
-0.384864 0.449547 0 
-0.772283 0.757952 0 
-0.441567 0.609609 0 
-0.503307 0.387497 0 
-0.379595 0.323312 0 
-0.522187 0.599225 0 
-0.342752 0.53973 0 
-0.470747 0.576167 0 
-0.571417 1.03309 0 
-0.538758 0.572541 0 
-0.767708 0.693285 0 
-0.725075 0.324078 0 
-0.525678 0.472307 0 
-0.586953 0.392619 0 
-0.601566 0.329033 0 
-0.600846 0.663257 0 
-0.413334 0.341877 0 
-0.719535 0.436794 0 
-0.638005 0.312275 0 
-0.555458 0.507247 0 
-0.388941 0.354353 0 
-0.441668 0.416578 0 
-0.311269 0.548117 0 
VECTORS body_force double
0 -9.81 0 
0 -9.81 0 
0 -9.81 0 
0 -9.81 0 
0 -9.81 0 
0 -9.81 0 
0 -9.81 0 
0 -9.81 0 
0 -9.81 0 
0 -9.81 0 
0 -9.81 0 
0 -9.81 0 
0 -9.81 0 
0 -9.81 0 
0 -9.81 0 
0 -9.81 0 
0 -9.81 0 
0 -9.81 0 
0 -9.81 0 
0 -9.81 0 
0 -9.81 0 
0 -9.81 0 
0 -9.81 0 
0 -9.81 0 
0 -9.81 0 
0 -9.81 0 
0 -9.81 0 
0 -9.81 0 
0 -9.81 0 
0 -9.81 0 
0 -9.81 0 
0 -9.81 0 
0 -9.81 0 
0 -9.81 0 
0 -9.81 0 
0 -9.81 0 
0 -9.81 0 
0 -9.81 0 
0 -9.81 0 
0 -9.81 0 
0 -9.81 0 
0 -9.81 0 
0 -9.81 0 
0 -9.81 0 
0 -9.81 0 
0 -9.81 0 
0 -9.81 0 
0 -9.81 0 
0 -9.81 0 
0 -9.81 0 
0 -9.81 0 
0 -9.81 0 
0 -9.81 0 
0 -9.81 0 
0 -9.81 0 
0 -9.81 0 
0 -9.81 0 
0 -9.81 0 
0 -9.81 0 
0 -9.81 0 
0 -9.81 0 
0 -9.81 0 
0 -9.81 0 
0 -9.81 0 
TENSORS cauchy_stress double
5477.63 1890.49 0
1890.49 2722.75 0
0 0 0

-697.292 289.2 0
289.2 3287.04 0
0 0 0

-6133.44 -1534.64 0
-1534.64 -2659.08 0
0 0 0

-4773.81 129.373 0
129.373 444.583 0
0 0 0

-768.932 2280.41 0
2280.41 -895.177 0
0 0 0

-3790.76 4574.99 0
4574.99 936.097 0
0 0 0

-607.828 -1456.65 0
-1456.65 -4427.56 0
0 0 0

-2806.94 -858.781 0
-858.781 -963.504 0
0 0 0

-7757.92 1185.81 0
1185.81 -4787.19 0
0 0 0

-17788.1 1674.72 0
1674.72 -2890.03 0
0 0 0

72.1916 -2435.01 0
-2435.01 -3427.71 0
0 0 0

198.437 3794.12 0
3794.12 2693.95 0
0 0 0

-18066.4 173.238 0
173.238 -8114.24 0
0 0 0

-29232.9 -312.784 0
-312.784 -5220.2 0
0 0 0

-4887.57 -1730.25 0
-1730.25 4141.19 0
0 0 0

-532.281 107.435 0
107.435 -1117.87 0
0 0 0

1157.44 178.345 0
178.345 3996.42 0
0 0 0

-5648.28 3654.09 0
3654.09 5343.22 0
0 0 0

-2936.62 -365.746 0
-365.746 -529.431 0
0 0 0

-6384.22 1444.87 0
1444.87 2022.85 0
0 0 0

-4332.53 4132.99 0
4132.99 -926.578 0
0 0 0

-2188.66 3571.02 0
3571.02 2544.55 0
0 0 0

-592.606 -1249.71 0
-1249.71 351.909 0
0 0 0

-1719.12 -1935.17 0
-1935.17 2331.31 0
0 0 0

-2205.51 338.498 0
338.498 1847.53 0
0 0 0

-4779.14 1498.26 0
1498.26 -3680.7 0
0 0 0

-2328.49 -1458.72 0
-1458.72 3742.56 0
0 0 0

6924.92 -1719.31 0
-1719.31 2462.75 0
0 0 0

-1026.21 568.696 0
568.696 2624.72 0
0 0 0

-4909.14 -1156.64 0
-1156.64 -2350.51 0
0 0 0

-2224.56 -2096.02 0
-2096.02 -4444.81 0
0 0 0

-539.025 437.803 0
437.803 2371.18 0
0 0 0

-2819.39 1346.2 0
1346.2 57.5443 0
0 0 0

-12862.8 3273.52 0
3273.52 617.223 0
0 0 0

725.791 1195.85 0
1195.85 -3343.13 0
0 0 0

-2046.02 1089.76 0
1089.76 1941.29 0
0 0 0

-1150.55 1282.14 0
1282.14 4684.41 0
0 0 0

-424.929 -168.405 0
-168.405 1408.26 0
0 0 0

1883.99 -1296.43 0
-1296.43 3708.41 0
0 0 0

-3319.98 -666.714 0
-666.714 -418.367 0
0 0 0

807.432 758.588 0
758.588 6703.9 0
0 0 0

2976.28 -1398.55 0
-1398.55 289.547 0
0 0 0

2993.92 279.075 0
279.075 11145.4 0
0 0 0

1787.42 -2940.18 0
-2940.18 -10533 0
0 0 0

-1429.3 -1631.75 0
-1631.75 2595.95 0
0 0 0

6138.81 -1703.95 0
-1703.95 -6701.18 0
0 0 0

380.954 -358.161 0
-358.161 2410.69 0
0 0 0

499.04 -2177.43 0
-2177.43 -1299.71 0
0 0 0

-125.108 1460.05 0
1460.05 750.044 0
0 0 0

-4010.33 233.053 0
233.053 3009.37 0
0 0 0

393.44 363.628 0
363.628 -1237.87 0
0 0 0

1101.3 -1248.42 0
-1248.42 5115.11 0
0 0 0

-2208.23 -1006.45 0
-1006.45 -1557.22 0
0 0 0

883.851 -2619.82 0
-2619.82 930.104 0
0 0 0

-146.603 528.756 0
528.756 4736.15 0
0 0 0

-331.509 -1109.05 0
-1109.05 3390.04 0
0 0 0

-3954.81 -696.567 0
-696.567 3715.51 0
0 0 0

2165.69 -972.838 0
-972.838 -832.247 0
0 0 0

-515.032 -1446.36 0
-1446.36 6766.45 0
0 0 0

-145.345 -641.55 0
-641.55 1631.33 0
0 0 0

788.187 1554.95 0
1554.95 -549.736 0
0 0 0

6760.08 -1004.64 0
-1004.64 -990.059 0
0 0 0

-1092.61 382.151 0
382.151 1783.94 0
0 0 0

2873.72 1066.51 0
1066.51 1379.02 0
0 0 0

TENSORS velocity_gradient double
-1.84586 -1.97283 0
3.11319 3.25819 0
0 0 0

-1.94573 -0.495648 0
1.92333 -1.8866 0
0 0 0

-1.61238 -0.993398 0
3.12836 -1.616 0
0 0 0

-1.99904 -0.97606 0
1.77266 -3.24443 0
0 0 0

-2.47895 1.51489 0
0.918806 -2.23499 0
0 0 0

-5.03825 2.56579 0
1.03963 -2.69669 0
0 0 0

-2.55357 1.42586 0
0.886864 -1.85417 0
0 0 0

-3.33385 1.84772 0
1.67522 -1.78709 0
0 0 0

-8.99593 4.40289 0
0.921126 -0.23203 0
0 0 0

-9.09417 6.35275 0
1.68929 2.72943 0
0 0 0

-4.2428 5.25588 0
2.27397 2.07321 0
0 0 0

-5.53558 6.16281 0
1.98663 2.86721 0
0 0 0

-6.12989 2.73337 0
2.88389 4.29756 0
0 0 0

-5.76007 -0.0482383 0
1.21324 5.86086 0
0 0 0

-6.56871 1.07909 0
1.0305 2.82296 0
0 0 0

-6.15249 0.195548 0
-1.93155 3.3604 0
0 0 0

0.795467 -2.43505 0
5.36636 -3.77993 0
0 0 0

-1.65415 -2.10622 0
5.95624 -3.85911 0
0 0 0

0.683091 -4.6897 0
5.39342 -3.237 0
0 0 0

-1.75178 -4.36371 0
5.97974 -3.3155 0
0 0 0

-3.24309 1.15576 0
5.56818 -1.44633 0
0 0 0

-3.48636 1.23608 0
3.42813 -1.39826 0
0 0 0

-3.28648 0.918679 0
5.68459 -2.89881 0
0 0 0

-3.51366 0.957186 0
4.22722 -2.65179 0
0 0 0

-4.23667 4.71679 0
2.31176 2.31024 0
0 0 0

-5.82639 4.92646 0
1.91298 2.5541 0
0 0 0

-3.67076 4.4363 0
2.2099 0.152668 0
0 0 0

-3.72178 4.44571 0
-0.254323 0.607012 0
0 0 0

-6.54086 0.712805 0
0.549072 0.0565013 0
0 0 0

-6.02353 0.656418 0
-2.75526 0.416667 0
0 0 0

-3.06154 1.83406 0
-1.68366 -1.25711 0
0 0 0

-1.57666 1.60836 0
-1.81769 -1.23674 0
0 0 0

-0.968868 -5.74195 0
-0.71375 -2.78327 0
0 0 0

-0.286229 -5.78837 0
0.671342 -2.85625 0
0 0 0

-0.774012 -4.72435 0
-0.648096 -2.4404 0
0 0 0

0.171002 -4.99031 0
-0.329684 -2.53001 0
0 0 0

-0.0702475 0.807283 0
0.546585 -4.14083 0
0 0 0

-1.2725 0.804135 0
1.273 -3.96127 0
0 0 0

0.726679 1.04885 0
-0.75139 -5.01956 0
0 0 0

1.00144 1.00206 0
-1.63089 -4.86978 0
0 0 0

-2.38637 4.3191 0
0.832166 -2.10882 0
0 0 0

-3.59368 4.38354 0
-0.550495 -1.95258 0
0 0 0

0.46377 3.57703 0
-1.85335 -2.4487 0
0 0 0

-0.454547 3.67047 0
-1.73338 -2.46091 0
0 0 0

-2.85149 3.30972 0
-1.70262 -1.39031 0
0 0 0

-1.41499 3.10113 0
-1.83228 -1.37148 0
0 0 0

-0.826951 3.8163 0
-0.903142 -0.699461 0
0 0 0

-0.925864 3.82745 0
0.267458 -0.831345 0
0 0 0

-0.745175 -3.81066 0
-5.30175 -1.8275 0
0 0 0

0.149801 -4.09823 0
-3.02829 -2.10728 0
0 0 0

-0.683951 -3.01547 0
-5.22808 -0.87067 0
0 0 0

0.11393 -2.87452 0
-4.25824 -1.68177 0
0 0 0

0.167258 1.17018 0
-3.24419 -5.75402 0
0 0 0

0.3883 1.19084 0
-2.76882 -5.66375 0
0 0 0

-0.0885616 0.68844 0
-4.21783 -6.05183 0
0 0 0

-0.620985 0.879666 0
-4.45388 -5.71394 0
0 0 0

0.188194 2.7044 0
-2.21828 -2.30093 0
0 0 0

-0.558915 2.73913 0
-1.80386 -2.32844 0
0 0 0

-0.934349 2.33382 0
-3.8501 -1.65259 0
0 0 0

-1.09928 2.91396 0
-3.00681 -0.703566 0
0 0 0

-0.834831 3.71659 0
-0.809884 0.480638 0
0 0 0

-0.930635 3.72643 0
0.32392 0.364218 0
0 0 0

-0.456337 4.19103 0
-2.06291 1.52858 0
0 0 0

0.0408901 3.23841 0
-1.24697 0.556566 0
0 0 0

SCALARS active double 1
LOOKUP_TABLE default
1
1
1
1
1
1
1
1
1
1
1
1
1
1
1
1
1
1
1
1
1
1
1
1
1
1
1
1
1
1
1
1
1
1
1
1
1
1
1
1
1
1
1
1
1
1
1
1
1
1
1
1
1
1
1
1
1
1
1
1
1
1
1
1
SCALARS extent double 1
LOOKUP_TABLE default
0.0125
0.0125
0.0125
0.0125
0.0125
0.0125
0.0125
0.0125
0.0125
0.0125
0.0125
0.0125
0.0125
0.0125
0.0125
0.0125
0.0125
0.0125
0.0125
0.0125
0.0125
0.0125
0.0125
0.0125
0.0125
0.0125
0.0125
0.0125
0.0125
0.0125
0.0125
0.0125
0.0125
0.0125
0.0125
0.0125
0.0125
0.0125
0.0125
0.0125
0.0125
0.0125
0.0125
0.0125
0.0125
0.0125
0.0125
0.0125
0.0125
0.0125
0.0125
0.0125
0.0125
0.0125
0.0125
0.0125
0.0125
0.0125
0.0125
0.0125
0.0125
0.0125
0.0125
0.0125
SCALARS pressure double 1
LOOKUP_TABLE default
-4100.19
-1294.87
4396.26
2164.61
832.054
1427.33
2517.69
1885.22
6272.56
10339
1677.76
-1446.19
13090.3
17226.5
373.187
825.078
-2576.93
152.528
1733.03
2180.68
2629.55
-177.946
120.349
-306.095
178.986
4229.92
-707.034
-4693.83
-799.257
3629.82
3334.69
-916.078
1380.92
6122.8
1308.67
52.363
-1766.93
-491.666
-2796.2
1869.18
-3755.67
-1632.91
-7069.67
4372.81
-583.326
281.185
-1395.82
400.333
-312.468
500.481
422.215
-3108.2
1882.73
-906.978
-2294.77
-1529.27
119.649
-666.723
-3125.71
-742.991
-119.226
-2885.01
-345.663
-2126.37
SCALARS density double 1
LOOKUP_TABLE default
958.254
986.624
1046.78
1022.77
1008.69
1014.95
1026.53
1019.8
1067.41
1113.52
1017.6
985.072
1145.84
1196.21
1003.89
1008.62
973.556
1001.59
1018.19
1022.94
1027.72
998.151
1001.25
996.822
1001.86
1044.97
992.674
952.356
991.722
1038.47
1035.29
990.518
1014.47
1065.75
1013.7
1000.54
981.792
994.9
971.338
1019.63
961.694
983.161
929.113
1046.53
993.952
1002.93
985.588
1004.17
996.756
1005.22
1004.4
968.192
1019.77
990.612
976.417
984.221
1001.25
993.09
968.015
992.303
998.761
970.442
996.412
978.128
