# vtk DataFile Version 3.0
Frame: 47, Time: 0.801
ASCII
DATASET UNSTRUCTURED_GRID
POINTS 64 double
0.0837208 0.10971 0 
0.0919831 0.133288 0 
0.106724 0.101984 0 
0.1145 0.12605 0 
0.0974428 0.158218 0 
0.105106 0.182244 0 
0.121527 0.150402 0 
0.129262 0.17482 0 
0.109181 0.206396 0 
0.115106 0.232183 0 
0.135119 0.199673 0 
0.139848 0.22446 0 
0.124689 0.255489 0 
0.130529 0.278992 0 
0.149126 0.248097 0 
0.155195 0.271832 0 
0.131939 0.0963517 0 
0.137539 0.12073 0 
0.155164 0.0882856 0 
0.160439 0.112332 0 
0.144171 0.145057 0 
0.150421 0.169405 0 
0.168313 0.136003 0 
0.173687 0.160067 0 
0.157082 0.194422 0 
0.162504 0.219119 0 
0.18088 0.185112 0 
0.18703 0.209251 0 
0.171566 0.242881 0 
0.179749 0.268525 0 
0.195317 0.234022 0 
0.202772 0.259153 0 
0.177544 0.0795953 0 
0.182199 0.105116 0 
0.204454 0.0733752 0 
0.206602 0.0991195 0 
0.191179 0.129194 0 
0.19662 0.153572 0 
0.215805 0.122853 0 
0.220814 0.147516 0 
0.204169 0.177725 0 
0.21114 0.201334 0 
0.227992 0.171566 0 
0.235194 0.194844 0 
0.218931 0.227364 0 
0.226372 0.251528 0 
0.241805 0.219662 0 
0.249302 0.24388 0 
0.22817 0.0656656 0 
0.229154 0.0929383 0 
0.251009 0.0595234 0 
0.251738 0.0860298 0 
0.239093 0.11605 0 
0.245022 0.140518 0 
0.262499 0.107323 0 
0.269216 0.132665 0 
0.251812 0.164419 0 
0.259996 0.188216 0 
0.276069 0.158461 0 
0.284835 0.182879 0 
0.265225 0.213108 0 
0.271905 0.236387 0 
0.289691 0.208319 0 
0.297101 0.231608 0 
CELLS 64 128
1 0
1 1
1 2
1 3
1 4
1 5
1 6
1 7
1 8
1 9
1 10
1 11
1 12
1 13
1 14
1 15
1 16
1 17
1 18
1 19
1 20
1 21
1 22
1 23
1 24
1 25
1 26
1 27
1 28
1 29
1 30
1 31
1 32
1 33
1 34
1 35
1 36
1 37
1 38
1 39
1 40
1 41
1 42
1 43
1 44
1 45
1 46
1 47
1 48
1 49
1 50
1 51
1 52
1 53
1 54
1 55
1 56
1 57
1 58
1 59
1 60
1 61
1 62
1 63
CELL_TYPES 64
1
1
1
1
1
1
1
1
1
1
1
1
1
1
1
1
1
1
1
1
1
1
1
1
1
1
1
1
1
1
1
1
1
1
1
1
1
1
1
1
1
1
1
1
1
1
1
1
1
1
1
1
1
1
1
1
1
1
1
1
1
1
1
1
POINT_DATA 64
VECTORS displacement double
-0.328779 -0.30279 0 
-0.320517 -0.304212 0 
-0.330776 -0.310516 0 
-0.323 -0.31145 0 
-0.315057 -0.304282 0 
-0.307394 -0.305256 0 
-0.315973 -0.312098 0 
-0.308238 -0.31268 0 
-0.303319 -0.306104 0 
-0.297394 -0.305317 0 
-0.302381 -0.312827 0 
-0.297652 -0.31304 0 
-0.287811 -0.307011 0 
-0.281971 -0.308508 0 
-0.288374 -0.314403 0 
-0.282305 -0.315668 0 
-0.330561 -0.316148 0 
-0.324961 -0.31677 0 
-0.332336 -0.324214 0 
-0.327061 -0.325168 0 
-0.318329 -0.317443 0 
-0.312079 -0.318095 0 
-0.319187 -0.326497 0 
-0.313813 -0.327433 0 
-0.305418 -0.318078 0 
-0.299996 -0.318381 0 
-0.30662 -0.327388 0 
-0.30047 -0.328249 0 
-0.290934 -0.319619 0 
-0.282751 -0.318975 0 
-0.292183 -0.328478 0 
-0.284728 -0.328347 0 
-0.334956 -0.332905 0 
-0.330301 -0.332384 0 
-0.333046 -0.339125 0 
-0.330898 -0.33838 0 
-0.321321 -0.333306 0 
-0.31588 -0.333928 0 
-0.321695 -0.339647 0 
-0.316686 -0.339984 0 
-0.308331 -0.334775 0 
-0.30136 -0.336166 0 
-0.309508 -0.340934 0 
-0.302306 -0.342656 0 
-0.293569 -0.335136 0 
-0.286128 -0.335972 0 
-0.295695 -0.342838 0 
-0.288198 -0.34362 0 
-0.33433 -0.346834 0 
-0.333346 -0.344562 0 
-0.336491 -0.352977 0 
-0.335762 -0.35147 0 
-0.323407 -0.34645 0 
-0.317478 -0.346982 0 
-0.325001 -0.355177 0 
-0.318284 -0.354835 0 
-0.310688 -0.348081 0 
-0.302504 -0.349284 0 
-0.311431 -0.354039 0 
-0.302665 -0.354621 0 
-0.297275 -0.349392 0 
-0.290595 -0.351113 0 
-0.297809 -0.354181 0 
-0.290399 -0.355892 0 
VECTORS velocity double
0.579256 -0.211046 0 
0.909822 -0.0515316 0 
0.249455 -0.324826 0 
0.514983 -0.403501 0 
0.684854 -0.176582 0 
0.72625 0.0554212 0 
0.733196 -0.665017 0 
0.772986 -0.120942 0 
1.15425 -0.284793 0 
0.90219 -0.259904 0 
0.991217 -0.402472 0 
0.98064 -0.648814 0 
0.982561 0.104848 0 
0.943428 -0.182217 0 
0.825788 -0.19223 0 
1.13149 -0.612564 0 
0.588563 -0.449387 0 
0.688058 -0.236854 0 
0.313716 -0.338606 0 
0.841219 -0.229217 0 
0.473472 -0.508992 0 
0.541543 -0.0713184 0 
0.649682 -0.699514 0 
0.527413 -0.291113 0 
0.71845 -0.368455 0 
0.981619 -0.672372 0 
0.650237 -0.245947 0 
0.881753 -0.618158 0 
0.848138 -0.189914 0 
0.956084 -0.240807 0 
0.901803 -0.205776 0 
1.29068 -0.47235 0 
0.0932367 -0.51003 0 
0.392879 -0.746982 0 
0.049217 -0.48436 0 
0.455491 -0.413869 0 
0.431966 -0.995345 0 
0.669906 -0.513926 0 
0.647226 -0.593283 0 
0.749133 -0.133448 0 
0.555152 -0.510591 0 
0.828727 -0.681641 0 
0.395444 -0.236913 0 
0.828791 -0.498944 0 
0.587559 -0.811637 0 
1.02459 -0.876618 0 
0.570263 -0.562034 0 
0.882985 -0.928597 0 
0.108174 -0.72353 0 
0.500124 -0.300061 0 
0.184142 -0.780909 0 
0.0214646 -0.498667 0 
0.286058 -0.718176 0 
0.68233 -0.508744 0 
0.0974043 -1.17512 0 
0.277659 -1.23524 0 
0.631921 -0.556891 0 
1.05568 -1.12505 0 
0.380037 -0.992858 0 
0.695191 -1.09647 0 
0.624385 -0.766921 0 
1.09408 -1.19023 0 
0.602558 -0.992998 0 
0.902324 -0.864975 0 
SCALARS mass double 1
LOOKUP_TABLE default
0.625
0.625
0.625
0.625
0.625
0.625
0.625
0.625
0.625
0.625
0.625
0.625
0.625
0.625
0.625
0.625
0.625
0.625
0.625
0.625
0.625
0.625
0.625
0.625
0.625
0.625
0.625
0.625
0.625
0.625
0.625
0.625
0.625
0.625
0.625
0.625
0.625
0.625
0.625
0.625
0.625
0.625
0.625
0.625
0.625
0.625
0.625
0.625
0.625
0.625
0.625
0.625
0.625
0.625
0.625
0.625
0.625
0.625
0.625
0.625
0.625
0.625
0.625
0.625
SCALARS volume double 1
LOOKUP_TABLE default
0.00063959
0.000618061
0.000605604
0.000605095
0.000641953
0.00063074
0.000627742
0.000607702
0.000625227
0.000643947
0.000626908
0.000650315
0.000609525
0.000646758
0.000616318
0.000620551
0.000663518
0.000627423
0.000613099
0.00061039
0.000627122
0.000616554
0.000629244
0.000624983
0.000632289
0.000600344
0.000629129
0.000642217
0.000635143
0.0006072
0.000609547
0.000638335
0.00062167
0.000609701
0.000625571
0.000635309
0.000646919
0.00062498
0.000640123
0.000611644
0.000626145
0.000617895
0.000662234
0.000597474
0.000637873
0.000624312
0.000630124
0.000596357
0.000615503
0.000615265
0.000616075
0.000623177
0.000613471
0.000635679
0.000642947
0.0006383
0.000622249
0.000628119
0.000643702
0.000633405
0.000609127
0.000620535
0.000621583
0.000626261
VECTORS momentum double
0.362035 -0.131904 0 
0.568639 -0.0322073 0 
0.15591 -0.203016 0 
0.321864 -0.252188 0 
0.428033 -0.110364 0 
0.453906 0.0346382 0 
0.458247 -0.415636 0 
0.483116 -0.0755885 0 
0.721405 -0.177995 0 
0.563869 -0.16244 0 
0.619511 -0.251545 0 
0.6129 -0.405509 0 
0.614101 0.0655298 0 
0.589643 -0.113886 0 
0.516118 -0.120144 0 
0.70718 -0.382852 0 
0.367852 -0.280867 0 
0.430036 -0.148034 0 
0.196073 -0.211629 0 
0.525762 -0.143261 0 
0.29592 -0.31812 0 
0.338465 -0.044574 0 
0.406051 -0.437196 0 
0.329633 -0.181946 0 
0.449031 -0.230284 0 
0.613512 -0.420232 0 
0.406398 -0.153717 0 
0.551096 -0.386349 0 
0.530086 -0.118696 0 
0.597552 -0.150504 0 
0.563627 -0.12861 0 
0.806676 -0.295219 0 
0.058273 -0.318769 0 
0.245549 -0.466864 0 
0.0307606 -0.302725 0 
0.284682 -0.258668 0 
0.269979 -0.622091 0 
0.418691 -0.321204 0 
0.404516 -0.370802 0 
0.468208 -0.0834049 0 
0.34697 -0.319119 0 
0.517954 -0.426026 0 
0.247153 -0.148071 0 
0.517994 -0.31184 0 
0.367225 -0.507273 0 
0.64037 -0.547886 0 
0.356414 -0.351271 0 
0.551866 -0.580373 0 
0.0676089 -0.452206 0 
0.312577 -0.187538 0 
0.115089 -0.488068 0 
0.0134154 -0.311667 0 
0.178786 -0.44886 0 
0.426456 -0.317965 0 
0.0608777 -0.73445 0 
0.173537 -0.772027 0 
0.394951 -0.348057 0 
0.659801 -0.703159 0 
0.237523 -0.620536 0 
0.434494 -0.685293 0 
0.390241 -0.479325 0 
0.683801 -0.743892 0 
0.376599 -0.620624 0 
0.563953 -0.540609 0 
VECTORS body_force double
0 -9.81 0 
0 -9.81 0 
0 -9.81 0 
0 -9.81 0 
0 -9.81 0 
0 -9.81 0 
0 -9.81 0 
0 -9.81 0 
0 -9.81 0 
0 -9.81 0 
0 -9.81 0 
0 -9.81 0 
0 -9.81 0 
0 -9.81 0 
0 -9.81 0 
0 -9.81 0 
0 -9.81 0 
0 -9.81 0 
0 -9.81 0 
0 -9.81 0 
0 -9.81 0 
0 -9.81 0 
0 -9.81 0 
0 -9.81 0 
0 -9.81 0 
0 -9.81 0 
0 -9.81 0 
0 -9.81 0 
0 -9.81 0 
0 -9.81 0 
0 -9.81 0 
0 -9.81 0 
0 -9.81 0 
0 -9.81 0 
0 -9.81 0 
0 -9.81 0 
0 -9.81 0 
0 -9.81 0 
0 -9.81 0 
0 -9.81 0 
0 -9.81 0 
0 -9.81 0 
0 -9.81 0 
0 -9.81 0 
0 -9.81 0 
0 -9.81 0 
0 -9.81 0 
0 -9.81 0 
0 -9.81 0 
0 -9.81 0 
0 -9.81 0 
0 -9.81 0 
0 -9.81 0 
0 -9.81 0 
0 -9.81 0 
0 -9.81 0 
0 -9.81 0 
0 -9.81 0 
0 -9.81 0 
0 -9.81 0 
0 -9.81 0 
0 -9.81 0 
0 -9.81 0 
0 -9.81 0 
TENSORS cauchy_stress double
2966.01 -1250.79 0
-1250.79 1471.77 0
0 0 0

-4713.43 342.274 0
342.274 2566.51 0
0 0 0

-4747.61 511.805 0
511.805 -1315.09 0
0 0 0

-5586.75 1165.27 0
1165.27 -637.363 0
0 0 0

1238.76 1342.61 0
1342.61 3907.91 0
0 0 0

824.343 2533.69 0
2533.69 933.637 0
0 0 0

-273.103 -47.5839 0
-47.5839 1114.98 0
0 0 0

-5445.98 122.512 0
122.512 48.4337 0
0 0 0

-448.45 -1504.61 0
-1504.61 518.313 0
0 0 0

872.212 3193.05 0
3193.05 4870.87 0
0 0 0

-1709.92 -3202.79 0
-3202.79 2296.16 0
0 0 0

5029.84 1087.42 0
1087.42 2605.84 0
0 0 0

-1733.65 -2036.54 0
-2036.54 -3087.83 0
0 0 0

-327.033 1406.91 0
1406.91 6907.97 0
0 0 0

-3968.01 868.457 0
868.457 1278.01 0
0 0 0

1160.3 -479.384 0
-479.384 -2533.96 0
0 0 0

7793.89 -145.418 0
-145.418 3706.84 0
0 0 0

-1155.29 2629.1 0
2629.1 1899.27 0
0 0 0

-1356.38 -680.263 0
-680.263 -2340.79 0
0 0 0

-3944.93 -108.463 0
-108.463 -603.872 0
0 0 0

1904.81 2677.51 0
2677.51 -1253.01 0
0 0 0

-2438.93 785.646 0
785.646 -177.529 0
0 0 0

1555.9 -799.985 0
-799.985 -254.417 0
0 0 0

-2788.81 -1912.66 0
-1912.66 2783.44 0
0 0 0

-504.951 898.885 0
898.885 2734.64 0
0 0 0

-3675.66 -667.58 0
-667.58 -4064.34 0
0 0 0

-1126.68 2777.84 0
2777.84 2392.99 0
0 0 0

2520.03 -1673.92 0
-1673.92 2705.82 0
0 0 0

847.857 1321.4 0
1321.4 2247.95 0
0 0 0

-4055.17 -1480.52 0
-1480.52 -1501.26 0
0 0 0

-4332.29 844.592 0
844.592 -482.379 0
0 0 0

279.206 2822.43 0
2822.43 3780.85 0
0 0 0

18.8254 2030.13 0
2030.13 -1046.19 0
0 0 0

-5094.36 3684.33 0
3684.33 328.382 0
0 0 0

2981.13 -1075.2 0
-1075.2 -2805.64 0
0 0 0

-607.745 52.4446 0
52.4446 3753.95 0
0 0 0

4955.62 2113.65 0
2113.65 1673.14 0
0 0 0

146.162 -924.437 0
-924.437 -152.195 0
0 0 0

2101.2 -544.857 0
-544.857 2496.59 0
0 0 0

-1554.63 -492.545 0
-492.545 -2599.45 0
0 0 0

-251.333 3307.37 0
3307.37 603.278 0
0 0 0

-587.125 -1759.79 0
-1759.79 -1611.5 0
0 0 0

5065.35 3739.18 0
3739.18 6063.02 0
0 0 0

-181.237 -4675.66 0
-4675.66 -8480.34 0
0 0 0

-1413.55 2762.13 0
2762.13 5334.13 0
0 0 0

714.73 -2848.44 0
-2848.44 -926.513 0
0 0 0

-1699.91 2598.33 0
2598.33 3270.09 0
0 0 0

-8381.72 514.395 0
514.395 -639.962 0
0 0 0

-2334.86 889.324 0
889.324 -609.816 0
0 0 0

-6855.64 1943.98 0
1943.98 3836.59 0
0 0 0

-926.472 -486.849 0
-486.849 -1839.55 0
0 0 0

-2384.36 380.411 0
380.411 1822.76 0
0 0 0

-3522.74 1426.42 0
1426.42 -57.7078 0
0 0 0

1493.34 -1394.37 0
-1394.37 1764.66 0
0 0 0

173.836 2109.21 0
2109.21 5270.41 0
0 0 0

-428.371 97.407 0
97.407 4477.71 0
0 0 0

-999.974 2285.31 0
2285.31 151.534 0
0 0 0

1666.39 -23.9737 0
-23.9737 -709.128 0
0 0 0

-880.219 474.196 0
474.196 6550.24 0
0 0 0

-13.0368 129.077 0
129.077 2581.93 0
0 0 0

-2411.25 1966.74 0
1966.74 -2535.92 0
0 0 0

411.657 626.406 0
626.406 -1790.45 0
0 0 0

-1823.25 -1520.15 0
-1520.15 768.983 0
0 0 0

-1371.46 789.071 0
789.071 1758.99 0
0 0 0

TENSORS velocity_gradient double
-2.59211 2.56469 0
-1.54239 1.2327 0
0 0 0

-0.937481 3.14114 0
-1.89219 1.11084 0
0 0 0

-0.355429 2.16796 0
-2.72308 0.292182 0
0 0 0

-0.89212 3.23253 0
-2.99163 0.776843 0
0 0 0

0.0696218 3.9842 0
-2.51906 0.410467 0
0 0 0

-1.11675 4.18198 0
-3.07621 0.369014 0
0 0 0

-1.65684 3.70212 0
-3.27957 0.546131 0
0 0 0

-1.6884 4.30682 0
-3.19282 0.489398 0
0 0 0

-1.47518 1.12487 0
-3.04033 1.09242 0
0 0 0

-0.965265 1.24161 0
-3.01712 1.09773 0
0 0 0

-1.55497 2.9829 0
-3.06192 0.819513 0
0 0 0

-1.11638 1.7318 0
-3.024 1.12004 0
0 0 0

-0.389773 1.08174 0
-3.113 -0.110804 0
0 0 0

0.519303 1.29239 0
-3.54575 -0.271766 0
0 0 0

-0.133956 1.98549 0
-3.07016 0.49158 0
0 0 0

1.08516 2.12832 0
-2.76993 -0.495398 0
0 0 0

-0.632947 2.73 0
-2.77911 -0.013477 0
0 0 0

-0.696982 2.37473 0
-2.91408 0.435952 0
0 0 0

-2.53952 5.27285 0
-2.74268 0.369805 0
0 0 0

-2.00246 2.40464 0
-2.48085 0.470143 0
0 0 0

-1.56757 2.43135 0
-3.25617 0.371101 0
0 0 0

-1.28168 4.25453 0
-2.62505 0.545639 0
0 0 0

-0.775056 2.81026 0
-1.93984 0.648934 0
0 0 0

-0.468003 3.51023 0
-1.81036 0.220875 0
0 0 0

-1.70908 3.98508 0
-2.39756 0.553244 0
0 0 0

-0.839039 2.61648 0
-2.77709 0.957204 0
0 0 0

-1.41129 3.24234 0
-2.24012 0.098822 0
0 0 0

-1.39932 4.02294 0
-2.63179 0.592467 0
0 0 0

0.520612 3.13103 0
-3.12968 0.823765 0
0 0 0

1.19848 2.53171 0
-2.73021 0.105772 0
0 0 0

-0.0777763 4.45377 0
-3.21511 0.455851 0
0 0 0

-0.689276 3.228 0
-6.08881 0.662668 0
0 0 0

-2.70253 5.42098 0
-2.66409 0.276136 0
0 0 0

-2.35759 3.63241 0
-2.63538 0.932611 0
0 0 0

-0.982691 5.14177 0
-2.45315 0.15681 0
0 0 0

-1.99469 4.84459 0
-2.53355 0.62547 0
0 0 0

-1.12536 3.998 0
-2.09424 1.17246 0
0 0 0

-0.49893 2.9884 0
-2.21165 0.076532 0
0 0 0

-1.86662 4.72911 0
-3.30823 0.805131 0
0 0 0

-1.43774 4.22307 0
-4.18745 0.230633 0
0 0 0

-0.687932 2.69875 0
-4.10911 -0.279915 0
0 0 0

-0.175103 3.74393 0
-5.16737 -0.284361 0
0 0 0

-0.749624 3.34623 0
-4.59664 -0.589802 0
0 0 0

-0.0995181 3.47661 0
-4.93538 -0.821756 0
0 0 0

-1.418 3.81855 0
-6.63119 -0.698493 0
0 0 0

-2.09179 4.76304 0
-7.77459 0.318747 0
0 0 0

-1.00316 2.56144 0
-6.17672 -2.07569 0
0 0 0

-0.575624 2.83862 0
-5.62711 -1.9542 0
0 0 0

-0.176762 3.74948 0
-2.41784 0.148913 0
0 0 0

-1.84848 3.6953 0
-2.42065 0.148822 0
0 0 0

1.47395 2.20631 0
-1.9884 -0.371525 0
0 0 0

-0.692379 2.15163 0
-4.35727 -0.420755 0
0 0 0

-1.97467 5.10441 0
-3.05357 -0.0794387 0
0 0 0

-1.58105 5.19166 0
-4.16397 -0.279597 0
0 0 0

-1.58668 5.28886 0
-7.38189 -0.341795 0
0 0 0

-1.58013 5.29056 0
-7.03858 -0.252659 0
0 0 0

-1.04731 4.08983 0
-5.61264 -0.733396 0
0 0 0

-0.35156 4.34304 0
-5.63719 -0.597114 0
0 0 0

-1.28275 4.85223 0
-6.53333 -0.107092 0
0 0 0

-0.514677 5.1238 0
-5.79417 0.154256 0
0 0 0

0.651545 2.75019 0
-4.37218 -1.64936 0
0 0 0

1.75201 3.06164 0
-2.81199 -1.20779 0
0 0 0

0.430755 3.90404 0
-4.68521 -0.0134802 0
0 0 0

-7.46164 4.00829 0
-0.245602 0.18226 0
0 0 0

SCALARS active double 1
LOOKUP_TABLE default
1
1
1
1
1
1
1
1
1
1
1
1
1
1
1
1
1
1
1
1
1
1
1
1
1
1
1
1
1
1
1
1
1
1
1
1
1
1
1
1
1
1
1
1
1
1
1
1
1
1
1
1
1
1
1
1
1
1
1
1
1
1
1
1
SCALARS extent double 1
LOOKUP_TABLE default
0.0125
0.0125
0.0125
0.0125
0.0125
0.0125
0.0125
0.0125
0.0125
0.0125
0.0125
0.0125
0.0125
0.0125
0.0125
0.0125
0.0125
0.0125
0.0125
0.0125
0.0125
0.0125
0.0125
0.0125
0.0125
0.0125
0.0125
0.0125
0.0125
0.0125
0.0125
0.0125
0.0125
0.0125
0.0125
0.0125
0.0125
0.0125
0.0125
0.0125
0.0125
0.0125
0.0125
0.0125
0.0125
0.0125
0.0125
0.0125
0.0125
0.0125
0.0125
0.0125
0.0125
0.0125
0.0125
0.0125
0.0125
0.0125
0.0125
0.0125
0.0125
0.0125
0.0125
0.0125
SCALARS pressure double 1
LOOKUP_TABLE default
-2218.89
1073.46
3031.35
3112.06
-2573.34
-878.99
-420.939
2698.77
-34.9317
-2871.54
-293.123
-3817.84
2410.74
-3290.47
1345
686.834
-5750.37
-371.988
1848.59
2274.4
-325.898
1308.23
-650.739
2.68426
-1114.85
3870
-633.157
-2612.92
-1547.9
2778.21
2407.33
-2030.03
513.68
2382.99
-87.7461
-1573.1
-3314.38
3.01663
-2298.9
2077.04
-175.972
1099.31
-5564.19
4330.79
-1960.29
105.891
-785.087
4510.84
1472.34
1509.53
1383.01
280.802
1790.23
-1629
-2722.12
-2024.67
424.22
-478.63
-2835.01
-1284.45
2473.59
689.397
527.133
-193.767
SCALARS density double 1
LOOKUP_TABLE default
977.188
1011.23
1032.03
1032.89
973.592
990.9
995.632
1028.46
999.637
970.578
996.956
961.072
1025.39
966.358
1014.09
1007.17
941.949
996.139
1019.41
1023.94
996.616
1013.7
993.255
1000.03
988.473
1041.07
993.437
973.191
984.031
1029.31
1025.35
979.109
1005.36
1025.09
999.088
983.773
966.118
1000.03
976.375
1021.84
998.172
1011.5
943.775
1046.07
979.819
1001.1
991.868
1048.03
1015.43
1015.82
1014.49
1002.92
1018.79
983.201
972.087
979.164
1004.42
995.035
970.946
986.731
1026.06
1007.2
1005.5
997.987
