# vtk DataFile Version 3.0
Frame: 23, Time: 0.4
ASCII
DATASET UNSTRUCTURED_GRID
POINTS 64 double
0.31542 0.104605 0 
0.320631 0.12896 0 
0.339414 0.0989806 0 
0.344628 0.123071 0 
0.323501 0.153126 0 
0.328032 0.177962 0 
0.347633 0.146687 0 
0.351306 0.171014 0 
0.329499 0.202536 0 
0.331147 0.226081 0 
0.353814 0.19672 0 
0.355352 0.220994 0 
0.336939 0.250256 0 
0.339872 0.273998 0 
0.362342 0.246075 0 
0.365805 0.271047 0 
0.364767 0.0943252 0 
0.368748 0.118655 0 
0.388496 0.0882272 0 
0.392969 0.112193 0 
0.371919 0.142509 0 
0.374541 0.16693 0 
0.398157 0.135162 0 
0.399895 0.158378 0 
0.377189 0.192476 0 
0.378731 0.21628 0 
0.401845 0.183446 0 
0.403462 0.207253 0 
0.385633 0.240113 0 
0.392049 0.267913 0 
0.408765 0.232546 0 
0.414567 0.259479 0 
0.413596 0.0814372 0 
0.418058 0.10579 0 
0.440331 0.0775907 0 
0.442522 0.101495 0 
0.424074 0.129064 0 
0.425223 0.15234 0 
0.449226 0.125299 0 
0.451356 0.149956 0 
0.426505 0.17672 0 
0.427725 0.200179 0 
0.45329 0.175346 0 
0.454649 0.19867 0 
0.431604 0.226542 0 
0.437654 0.252427 0 
0.456681 0.222207 0 
0.461307 0.247635 0 
0.465257 0.0708934 0 
0.46523 0.0967473 0 
0.489659 0.0657272 0 
0.490431 0.0923991 0 
0.473421 0.120082 0 
0.476252 0.144641 0 
0.499831 0.114234 0 
0.501735 0.140031 0 
0.477208 0.170806 0 
0.479735 0.196428 0 
0.500542 0.169549 0 
0.504354 0.195565 0 
0.481095 0.220918 0 
0.485083 0.245363 0 
0.506515 0.219883 0 
0.512561 0.24224 0 
CELLS 64 128
1 0
1 1
1 2
1 3
1 4
1 5
1 6
1 7
1 8
1 9
1 10
1 11
1 12
1 13
1 14
1 15
1 16
1 17
1 18
1 19
1 20
1 21
1 22
1 23
1 24
1 25
1 26
1 27
1 28
1 29
1 30
1 31
1 32
1 33
1 34
1 35
1 36
1 37
1 38
1 39
1 40
1 41
1 42
1 43
1 44
1 45
1 46
1 47
1 48
1 49
1 50
1 51
1 52
1 53
1 54
1 55
1 56
1 57
1 58
1 59
1 60
1 61
1 62
1 63
CELL_TYPES 64
1
1
1
1
1
1
1
1
1
1
1
1
1
1
1
1
1
1
1
1
1
1
1
1
1
1
1
1
1
1
1
1
1
1
1
1
1
1
1
1
1
1
1
1
1
1
1
1
1
1
1
1
1
1
1
1
1
1
1
1
1
1
1
1
POINT_DATA 64
VECTORS displacement double
-0.09708 -0.307895 0 
-0.091869 -0.30854 0 
-0.0980859 -0.313519 0 
-0.0928717 -0.314429 0 
-0.0889991 -0.309374 0 
-0.0844685 -0.309538 0 
-0.0898667 -0.315813 0 
-0.0861937 -0.316486 0 
-0.0830015 -0.309964 0 
-0.0813528 -0.311419 0 
-0.0836857 -0.31578 0 
-0.0821477 -0.316506 0 
-0.0755609 -0.312244 0 
-0.0726283 -0.313502 0 
-0.0751585 -0.316425 0 
-0.0716953 -0.316453 0 
-0.0977328 -0.318175 0 
-0.093752 -0.318845 0 
-0.0990039 -0.324273 0 
-0.0945313 -0.325307 0 
-0.0905813 -0.319991 0 
-0.0879595 -0.32057 0 
-0.0893428 -0.327338 0 
-0.0876053 -0.329122 0 
-0.085311 -0.320024 0 
-0.0837694 -0.32122 0 
-0.0856548 -0.329054 0 
-0.0840379 -0.330247 0 
-0.0768672 -0.322387 0 
-0.0704507 -0.319587 0 
-0.0787345 -0.329954 0 
-0.0729333 -0.328021 0 
-0.0989039 -0.331063 0 
-0.0944417 -0.33171 0 
-0.0971692 -0.334909 0 
-0.0949776 -0.336005 0 
-0.0884264 -0.333436 0 
-0.0872767 -0.33516 0 
-0.0882736 -0.337201 0 
-0.0861439 -0.337544 0 
-0.0859953 -0.33578 0 
-0.0847746 -0.337321 0 
-0.0842096 -0.337154 0 
-0.0828513 -0.33883 0 
-0.080896 -0.335958 0 
-0.0748461 -0.335073 0 
-0.0808187 -0.340293 0 
-0.0761932 -0.339865 0 
-0.0972428 -0.341607 0 
-0.0972698 -0.340753 0 
-0.097841 -0.346773 0 
-0.0970687 -0.345101 0 
-0.0890786 -0.342418 0 
-0.0862477 -0.342859 0 
-0.0876693 -0.348266 0 
-0.0857647 -0.347469 0 
-0.0852917 -0.341694 0 
-0.0827655 -0.341072 0 
-0.0869578 -0.342951 0 
-0.0831464 -0.341935 0 
-0.0814053 -0.341582 0 
-0.0774173 -0.342137 0 
-0.0809854 -0.342617 0 
-0.074939 -0.34526 0 
VECTORS velocity double
-0.563417 0.373377 0 
-1.05703 0.690559 0 
-0.741358 0.202099 0 
-1.21463 0.604219 0 
-1.67422 0.197245 0 
-1.10184 0.803478 0 
-1.47195 0.406961 0 
-1.2643 1.00744 0 
-0.922529 0.858936 0 
-1.4598 0.687302 0 
-1.16371 1.18882 0 
-1.17313 1.01858 0 
-0.826762 1.25769 0 
-0.628916 1.27614 0 
-0.74495 1.50627 0 
-0.705616 1.35676 0 
-0.753094 0.861448 0 
-1.2029 1.10562 0 
-0.948779 0.289151 0 
-0.979607 0.611036 0 
-1.21285 0.668696 0 
-0.983293 1.12349 0 
-1.04202 -0.062043 0 
-1.19647 0.490704 0 
-1.32578 1.1562 0 
-1.29518 0.696575 0 
-1.81033 0.833277 0 
-1.63525 0.245761 0 
-0.777943 0.866239 0 
-0.150515 0.638917 0 
-0.698233 0.769011 0 
-0.611329 0.57815 0 
-0.995533 -0.335332 0 
-0.903614 0.148882 0 
-0.936873 0.651767 0 
-1.11374 1.18237 0 
-1.10088 -0.261712 0 
-0.928081 0.568956 0 
-0.934106 0.620325 0 
-0.489927 0.92433 0 
-1.74239 0.607879 0 
-1.60686 -0.16635 0 
-1.49099 0.450361 0 
-1.25729 0.15865 0 
-1.12947 -0.0830667 0 
-1.2258 0.764434 0 
-1.13325 0.144449 0 
-1.6208 0.961448 0 
-0.586341 1.10715 0 
-0.760096 1.70935 0 
-1.00142 1.3123 0 
-0.870856 1.55589 0 
-0.547599 0.674953 0 
-0.248571 0.649319 0 
-1.04887 1.05625 0 
-0.719287 1.62617 0 
-1.54379 0.88725 0 
-1.63106 1.0682 0 
-1.37661 2.22306 0 
-1.48284 1.6519 0 
-1.20586 0.860486 0 
-1.57165 0.513383 0 
-1.19217 0.543236 0 
-0.762714 1.26507 0 
SCALARS mass double 1
LOOKUP_TABLE default
0.625
0.625
0.625
0.625
0.625
0.625
0.625
0.625
0.625
0.625
0.625
0.625
0.625
0.625
0.625
0.625
0.625
0.625
0.625
0.625
0.625
0.625
0.625
0.625
0.625
0.625
0.625
0.625
0.625
0.625
0.625
0.625
0.625
0.625
0.625
0.625
0.625
0.625
0.625
0.625
0.625
0.625
0.625
0.625
0.625
0.625
0.625
0.625
0.625
0.625
0.625
0.625
0.625
0.625
0.625
0.625
0.625
0.625
0.625
0.625
0.625
0.625
0.625
0.625
SCALARS volume double 1
LOOKUP_TABLE default
0.000611934
0.0006136
0.000636839
0.000634081
0.000632117
0.000642243
0.000588796
0.000586788
0.00059749
0.000605014
0.000586388
0.000587124
0.000633208
0.000642797
0.000666942
0.000651865
0.000635205
0.00062661
0.000632331
0.000648313
0.000620423
0.000668336
0.000633739
0.00063926
0.000641103
0.000573152
0.000601896
0.000610525
0.000692739
0.000647965
0.000639441
0.000617047
0.0006573
0.000619404
0.000593046
0.000575197
0.000633182
0.000624549
0.000599092
0.000623081
0.000644702
0.000610616
0.000690216
0.000597354
0.000662391
0.00060305
0.000630109
0.000596189
0.000637544
0.000623898
0.000637067
0.000624123
0.000662122
0.000674541
0.00060314
0.000703396
0.000619264
0.00057916
0.000657939
0.000588485
0.000605097
0.000603537
0.000631728
0.000581977
VECTORS momentum double
-0.352135 0.233361 0 
-0.660643 0.4316 0 
-0.463349 0.126312 0 
-0.759145 0.377637 0 
-1.04638 0.123278 0 
-0.688652 0.502174 0 
-0.919967 0.25435 0 
-0.790186 0.629649 0 
-0.57658 0.536835 0 
-0.912376 0.429564 0 
-0.727316 0.743015 0 
-0.733209 0.636613 0 
-0.516726 0.786054 0 
-0.393073 0.797588 0 
-0.465594 0.941419 0 
-0.44101 0.847977 0 
-0.470684 0.538405 0 
-0.751815 0.691013 0 
-0.592987 0.180719 0 
-0.612254 0.381897 0 
-0.758031 0.417935 0 
-0.614558 0.702183 0 
-0.65126 -0.0387769 0 
-0.747794 0.30669 0 
-0.82861 0.722622 0 
-0.809486 0.43536 0 
-1.13146 0.520798 0 
-1.02203 0.153601 0 
-0.486215 0.5414 0 
-0.0940717 0.399323 0 
-0.436396 0.480632 0 
-0.38208 0.361344 0 
-0.622208 -0.209583 0 
-0.564759 0.0930511 0 
-0.585545 0.407354 0 
-0.696087 0.738979 0 
-0.688048 -0.16357 0 
-0.580051 0.355597 0 
-0.583816 0.387703 0 
-0.306205 0.577706 0 
-1.08899 0.379924 0 
-1.00429 -0.103968 0 
-0.931871 0.281476 0 
-0.785805 0.0991563 0 
-0.705921 -0.0519167 0 
-0.766127 0.477771 0 
-0.708283 0.0902808 0 
-1.013 0.600905 0 
-0.366463 0.691967 0 
-0.47506 1.06834 0 
-0.625889 0.82019 0 
-0.544285 0.972432 0 
-0.34225 0.421846 0 
-0.155357 0.405824 0 
-0.655546 0.660153 0 
-0.449554 1.01636 0 
-0.964867 0.554532 0 
-1.01941 0.667625 0 
-0.860382 1.38941 0 
-0.926775 1.03244 0 
-0.753663 0.537804 0 
-0.98228 0.320864 0 
-0.745107 0.339522 0 
-0.476696 0.790668 0 
VECTORS body_force double
0 -9.81 0 
0 -9.81 0 
0 -9.81 0 
0 -9.81 0 
0 -9.81 0 
0 -9.81 0 
0 -9.81 0 
0 -9.81 0 
0 -9.81 0 
0 -9.81 0 
0 -9.81 0 
0 -9.81 0 
0 -9.81 0 
0 -9.81 0 
0 -9.81 0 
0 -9.81 0 
0 -9.81 0 
0 -9.81 0 
0 -9.81 0 
0 -9.81 0 
0 -9.81 0 
0 -9.81 0 
0 -9.81 0 
0 -9.81 0 
0 -9.81 0 
0 -9.81 0 
0 -9.81 0 
0 -9.81 0 
0 -9.81 0 
0 -9.81 0 
0 -9.81 0 
0 -9.81 0 
0 -9.81 0 
0 -9.81 0 
0 -9.81 0 
0 -9.81 0 
0 -9.81 0 
0 -9.81 0 
0 -9.81 0 
0 -9.81 0 
0 -9.81 0 
0 -9.81 0 
0 -9.81 0 
0 -9.81 0 
0 -9.81 0 
0 -9.81 0 
0 -9.81 0 
0 -9.81 0 
0 -9.81 0 
0 -9.81 0 
0 -9.81 0 
0 -9.81 0 
0 -9.81 0 
0 -9.81 0 
0 -9.81 0 
0 -9.81 0 
0 -9.81 0 
0 -9.81 0 
0 -9.81 0 
0 -9.81 0 
0 -9.81 0 
0 -9.81 0 
0 -9.81 0 
0 -9.81 0 
TENSORS cauchy_stress double
-3527.54 58.4327 0
58.4327 -535.443 0
0 0 0

-3605.89 -1194.13 0
-1194.13 65.8456 0
0 0 0

3330.12 -1073.6 0
-1073.6 278.651 0
0 0 0

811.011 -3667.91 0
-3667.91 1963.01 0
0 0 0

485.96 1637.88 0
1637.88 1691.6 0
0 0 0

1388.22 -189.573 0
-189.573 3845.51 0
0 0 0

-6218.14 -7977.07 0
-7977.07 -5257.24 0
0 0 0

-11363.2 -5172.9 0
-5172.9 -769.008 0
0 0 0

-30.1997 -3722.57 0
-3722.57 -8626.49 0
0 0 0

-636.311 2459.66 0
2459.66 -5613.73 0
0 0 0

-10255.3 -4024.45 0
-4024.45 -2008.15 0
0 0 0

-5788.21 1113.42 0
1113.42 -6233.98 0
0 0 0

3890.95 -1250.8 0
-1250.8 -1381.78 0
0 0 0

1555.53 2860.28 0
2860.28 3843.96 0
0 0 0

3414.46 2462.55 0
2462.55 9076.08 0
0 0 0

8332.7 -1736.86 0
-1736.86 -239.128 0
0 0 0

2776.67 1323.79 0
1323.79 338.012 0
0 0 0

-162.365 4502.63 0
4502.63 657.221 0
0 0 0

-157.062 -5262.4 0
-5262.4 2399.59 0
0 0 0

5716.49 -1201.82 0
-1201.82 1326.24 0
0 0 0

3450.01 731.943 0
731.943 -4863.4 0
0 0 0

7184.23 -1541.6 0
-1541.6 5708.06 0
0 0 0

6607.79 -7680.85 0
-7680.85 -3937.59 0
0 0 0

2752.18 -9590.64 0
-9590.64 1586.28 0
0 0 0

1557.62 -4118.18 0
-4118.18 3334.5 0
0 0 0

-7481.18 -8886.09 0
-8886.09 -9172.71 0
0 0 0

-6087.92 -6242.79 0
-6242.79 -1155.61 0
0 0 0

-4674.7 -10019.3 0
-10019.3 168.564 0
0 0 0

6697.94 485.366 0
485.366 13090.9 0
0 0 0

-157.308 -4803.04 0
-4803.04 7096.83 0
0 0 0

-4398.42 -438.447 0
-438.447 8791.12 0
0 0 0

-7302.77 -1932.05 0
-1932.05 4839.94 0
0 0 0

10023.1 3807.26 0
3807.26 -332.926 0
0 0 0

2677.2 5374.71 0
5374.71 -4406.65 0
0 0 0

781.989 -2024.25 0
-2024.25 -10874.4 0
0 0 0

-8315.49 4579.63 0
4579.63 -7653.57 0
0 0 0

5560.79 -1586.98 0
-1586.98 -3059.66 0
0 0 0

4886.55 -6149.43 0
-6149.43 -5025.23 0
0 0 0

-5501.22 -295.617 0
-295.617 -2640.56 0
0 0 0

-401.529 -2557.93 0
-2557.93 -189.93 0
0 0 0

5966.65 647.759 0
647.759 2.01161 0
0 0 0

-587.045 -3490.72 0
-3490.72 -3890.6 0
0 0 0

9726.58 1915.98 0
1915.98 9360.43 0
0 0 0

6126.06 -8837.17 0
-8837.17 -14826.4 0
0 0 0

-416.386 5482.57 0
5482.57 11590.2 0
0 0 0

-1071.11 -1268.25 0
-1268.25 -5804.24 0
0 0 0

710.428 -691.721 0
-691.721 855.208 0
0 0 0

-8611.49 4614.03 0
4614.03 -464.268 0
0 0 0

3417.76 -4039.1 0
-4039.1 403.803 0
0 0 0

-371.164 4019.22 0
4019.22 31.9242 0
0 0 0

-979.577 1766.52 0
1766.52 4656.96 0
0 0 0

3281.4 8472.78 0
8472.78 -3551.33 0
0 0 0

7501.85 -3562.94 0
-3562.94 3593.96 0
0 0 0

6123.8 -7820.77 0
-7820.77 8545.65 0
0 0 0

-2669.65 2874.6 0
2874.6 -4177.08 0
0 0 0

4171.02 -6062.1 0
-6062.1 18553.6 0
0 0 0

-7415.72 2781.25 0
2781.25 5642.51 0
0 0 0

-6965.89 704.571 0
704.571 -7682.74 0
0 0 0

-2114.11 -151.233 0
-151.233 11991.2 0
0 0 0

-3847 -1690.04 0
-1690.04 -7729.94 0
0 0 0

-2384.68 7195.55 0
7195.55 -3838.97 0
0 0 0

274.731 8905.89 0
8905.89 -6994.77 0
0 0 0

-595.156 -1372.57 0
-1372.57 2654.25 0
0 0 0

6261.03 2080.02 0
2080.02 -19976.7 0
0 0 0

TENSORS velocity_gradient double
-1.96212 -8.91081 0
3.57577 1.7921 0
0 0 0

0.462469 -9.4773 0
4.20572 1.71164 0
0 0 0

-2.40355 -4.17449 0
3.58659 2.19989 0
0 0 0

-0.26729 -7.08896 0
2.7559 2.3945 0
0 0 0

2.22297 -1.01719 0
4.7908 3.32861 0
0 0 0

1.11695 2.18375 0
4.95662 3.9994 0
0 0 0

1.25545 -5.41929 0
1.28461 2.76035 0
0 0 0

-0.214973 0.825952 0
-1.35996 3.97658 0
0 0 0

0.041283 4.75891 0
4.56586 6.955 0
0 0 0

0.363078 6.31112 0
1.96993 8.45649 0
0 0 0

-2.21654 1.75847 0
-3.81892 4.25239 0
0 0 0

-1.35524 7.18699 0
-6.87081 5.58875 0
0 0 0

0.756575 5.74004 0
-0.960718 3.91635 0
0 0 0

0.353062 4.73361 0
-3.60563 -1.6088 0
0 0 0

0.585552 7.51786 0
-9.38508 4.1331 0
0 0 0

2.90265 6.11367 0
-9.85947 -2.54196 0
0 0 0

-1.8646 -1.97854 0
-5.13994 2.64602 0
0 0 0

-1.13705 -5.65382 0
-4.34389 3.05222 0
0 0 0

-1.74007 -2.46013 0
-5.43606 3.82974 0
0 0 0

-1.33581 -4.5013 0
-4.2307 3.67681 0
0 0 0

-0.00405406 -5.49643 0
-3.70363 3.14116 0
0 0 0

-0.685005 -0.681984 0
-3.91486 3.42149 0
0 0 0

1.72795 -4.26411 0
-0.078057 3.28431 0
0 0 0

2.38854 -2.49436 0
-1.01149 2.30391 0
0 0 0

-2.35514 -0.857199 0
-4.58677 3.351 0
0 0 0

-1.70515 8.99495 0
-6.40207 3.16681 0
0 0 0

0.666801 -2.66765 0
-3.22846 2.12803 0
0 0 0

-1.66555 9.4788 0
-5.03238 1.52528 0
0 0 0

0.131003 9.51049 0
-8.86177 2.47619 0
0 0 0

2.62288 8.65629 0
-9.87519 -2.39912 0
0 0 0

-6.21388 8.74058 0
-3.31516 1.73048 0
0 0 0

-9.73565 9.03254 0
-0.401195 0.677819 0
0 0 0

2.23207 -2.20065 0
11.3166 3.95584 0
0 0 0

3.09253 -3.30292 0
9.79816 0.78963 0
0 0 0

2.09383 -1.30901 0
11.4306 3.22071 0
0 0 0

2.92103 -1.87435 0
10.2587 -0.691931 0
0 0 0

4.06853 -3.15618 0
5.79513 -0.541549 0
0 0 0

4.45571 -4.36765 0
1.81582 -0.99113 0
0 0 0

1.73425 -2.03124 0
8.70393 -4.16958 0
0 0 0

2.07958 -4.40191 0
9.1096 -4.31589 0
0 0 0

2.18813 -5.22494 0
-1.86634 -1.32999 0
0 0 0

-0.543108 -0.372557 0
-4.71908 0.606287 0
0 0 0

0.681682 -7.69336 0
10.4196 -4.50475 0
0 0 0

-0.266354 -4.47389 0
11.7116 -1.78747 0
0 0 0

-5.12721 4.50918 0
-3.70194 3.23657 0
0 0 0

-9.22163 6.69734 0
-1.4862 4.68385 0
0 0 0

0.339827 1.65981 0
9.03132 3.1021 0
0 0 0

0.374595 1.72639 0
5.12752 3.34048 0
0 0 0

-0.0302757 -2.00346 0
10.802 2.12946 0
0 0 0

-1.49223 -1.85894 0
9.5585 1.1757 0
0 0 0

0.303109 -3.50192 0
11.088 0.843911 0
0 0 0

-1.33408 -3.55519 0
9.68344 0.798209 0
0 0 0

-0.674346 -0.566432 0
10.4555 -3.32935 0
0 0 0

0.880963 -0.386774 0
12.0561 -3.14446 0
0 0 0

-1.01252 0.498017 0
9.44123 -1.03742 0
0 0 0

-2.5463 0.454284 0
13.9537 -0.759798 0
0 0 0

0.574989 -8.60494 0
12.4556 -4.65391 0
0 0 0

-0.268753 -7.0207 0
12.2919 -4.03815 0
0 0 0

-0.0603449 -8.31435 0
12.0047 -5.8845 0
0 0 0

5.59212 -7.26011 0
4.25454 -6.26372 0
0 0 0

0.281635 2.59974 0
9.26901 -0.737101 0
0 0 0

0.982548 1.80975 0
5.44495 -1.03329 0
0 0 0

5.20062 2.37104 0
5.13194 -2.1945 0
0 0 0

2.59989 1.67552 0
8.8904 -1.18936 0
0 0 0

SCALARS active double 1
LOOKUP_TABLE default
1
1
1
1
1
1
1
1
1
1
1
1
1
1
1
1
1
1
1
1
1
1
1
1
1
1
1
1
1
1
1
1
1
1
1
1
1
1
1
1
1
1
1
1
1
1
1
1
1
1
1
1
1
1
1
1
1
1
1
1
1
1
1
1
SCALARS extent double 1
LOOKUP_TABLE default
0.0125
0.0125
0.0125
0.0125
0.0125
0.0125
0.0125
0.0125
0.0125
0.0125
0.0125
0.0125
0.0125
0.0125
0.0125
0.0125
0.0125
0.0125
0.0125
0.0125
0.0125
0.0125
0.0125
0.0125
0.0125
0.0125
0.0125
0.0125
0.0125
0.0125
0.0125
0.0125
0.0125
0.0125
0.0125
0.0125
0.0125
0.0125
0.0125
0.0125
0.0125
0.0125
0.0125
0.0125
0.0125
0.0125
0.0125
0.0125
0.0125
0.0125
0.0125
0.0125
0.0125
0.0125
0.0125
0.0125
0.0125
0.0125
0.0125
0.0125
0.0125
0.0125
0.0125
0.0125
SCALARS pressure double 1
LOOKUP_TABLE default
2031.49
1770.02
-1804.39
-1387.01
-1088.78
-2616.87
5737.69
6066.11
4328.34
3125.02
6131.74
6011.1
-1254.58
-2699.74
-6245.27
-4046.79
-1557.34
-247.428
-1121.26
-3521.37
706.694
-6446.14
-1335.1
-2169.23
-2446.06
8326.95
3621.77
2253.07
-9894.42
-3469.76
-2196.35
1231.41
-4845.08
864.725
5046.19
7984.53
-1250.56
69.3391
4070.89
295.73
-2984.33
2238.82
-9543.5
4350.15
-5586.9
3437.68
-782.818
4537.88
-1910.78
169.62
-1838.69
134.965
-5547.9
-7334.73
3423.36
-11362.3
886.604
7324.32
-4938.55
5788.47
3111.82
3360.02
-1029.55
6857.84
SCALARS density double 1
LOOKUP_TABLE default
1021.35
1018.58
981.409
985.679
988.741
973.152
1061.49
1065.12
1046.04
1033.03
1065.85
1064.51
987.037
972.313
937.114
958.787
983.934
997.43
988.407
964.04
1007.38
935.158
986.211
977.693
974.882
1090.46
1038.38
1023.71
902.215
964.558
977.417
1012.89
950.86
1009.03
1053.88
1086.58
987.078
1000.72
1043.25
1003.08
969.44
1023.56
905.514
1046.28
943.552
1036.4
991.892
1048.33
980.324
1001.77
981.059
1001.4
943.935
926.556
1036.24
888.547
1009.26
1079.15
949.936
1062.05
1032.89
1035.56
989.35
1073.93
