# vtk DataFile Version 3.0
Frame: 40, Time: 0.684
ASCII
DATASET UNSTRUCTURED_GRID
POINTS 64 double
0.777609 0.187139 0 
0.766359 0.164072 0 
0.75273 0.198669 0 
0.7412 0.174528 0 
0.755494 0.141985 0 
0.744352 0.119021 0 
0.731867 0.151836 0 
0.719758 0.128116 0 
0.734539 0.0964774 0 
0.724112 0.0742086 0 
0.709523 0.105545 0 
0.699962 0.0833417 0 
0.715195 0.051241 0 
0.704404 0.0325501 0 
0.690433 0.0615838 0 
0.678726 0.0396691 0 
0.730592 0.208219 0 
0.717994 0.184807 0 
0.708347 0.219465 0 
0.695341 0.194281 0 
0.707978 0.161761 0 
0.696901 0.138934 0 
0.684756 0.171964 0 
0.673344 0.148733 0 
0.685876 0.11624 0 
0.676447 0.0938611 0 
0.662545 0.125932 0 
0.652359 0.103315 0 
0.6669 0.07026 0 
0.654652 0.047124 0 
0.642782 0.0796875 0 
0.631217 0.0562503 0 
0.686096 0.229054 0 
0.672309 0.20653 0 
0.66319 0.239488 0 
0.649759 0.217391 0 
0.662344 0.183534 0 
0.65025 0.160282 0 
0.637638 0.194115 0 
0.627246 0.170532 0 
0.639277 0.137166 0 
0.629512 0.113257 0 
0.616202 0.148188 0 
0.607316 0.124433 0 
0.619332 0.0897238 0 
0.608198 0.0667071 0 
0.596135 0.101038 0 
0.584972 0.0778436 0 
0.640392 0.250215 0 
0.627366 0.228587 0 
0.618529 0.263425 0 
0.605095 0.240999 0 
0.615356 0.205146 0 
0.603925 0.18152 0 
0.593509 0.216971 0 
0.580747 0.194467 0 
0.593202 0.1579 0 
0.583195 0.134138 0 
0.569848 0.170571 0 
0.559826 0.145973 0 
0.571809 0.109942 0 
0.561814 0.0866272 0 
0.548622 0.122573 0 
0.539909 0.0976516 0 
CELLS 64 128
1 0
1 1
1 2
1 3
1 4
1 5
1 6
1 7
1 8
1 9
1 10
1 11
1 12
1 13
1 14
1 15
1 16
1 17
1 18
1 19
1 20
1 21
1 22
1 23
1 24
1 25
1 26
1 27
1 28
1 29
1 30
1 31
1 32
1 33
1 34
1 35
1 36
1 37
1 38
1 39
1 40
1 41
1 42
1 43
1 44
1 45
1 46
1 47
1 48
1 49
1 50
1 51
1 52
1 53
1 54
1 55
1 56
1 57
1 58
1 59
1 60
1 61
1 62
1 63
CELL_TYPES 64
1
1
1
1
1
1
1
1
1
1
1
1
1
1
1
1
1
1
1
1
1
1
1
1
1
1
1
1
1
1
1
1
1
1
1
1
1
1
1
1
1
1
1
1
1
1
1
1
1
1
1
1
1
1
1
1
1
1
1
1
1
1
1
1
POINT_DATA 64
VECTORS displacement double
0.265109 -0.425361 0 
0.253859 -0.473428 0 
0.21523 -0.413831 0 
0.2037 -0.462972 0 
0.242994 -0.520515 0 
0.231852 -0.568479 0 
0.194367 -0.510664 0 
0.182258 -0.559384 0 
0.222039 -0.616023 0 
0.211612 -0.663291 0 
0.172023 -0.606955 0 
0.162462 -0.654158 0 
0.202695 -0.711259 0 
0.191904 -0.75495 0 
0.152933 -0.700916 0 
0.141226 -0.747831 0 
0.168092 -0.404281 0 
0.155494 -0.452693 0 
0.120847 -0.393035 0 
0.107841 -0.443219 0 
0.145478 -0.500739 0 
0.134401 -0.548566 0 
0.0972559 -0.490536 0 
0.0858445 -0.538767 0 
0.123376 -0.59626 0 
0.113947 -0.643639 0 
0.0750453 -0.586568 0 
0.0648586 -0.634185 0 
0.1044 -0.69224 0 
0.0921519 -0.740376 0 
0.0552819 -0.682812 0 
0.0437168 -0.73125 0 
0.0735961 -0.383446 0 
0.0598085 -0.43097 0 
0.0256905 -0.373012 0 
0.0122594 -0.420109 0 
0.0498445 -0.478966 0 
0.0377503 -0.527218 0 
0.000138093 -0.468385 0 
-0.010254 -0.516968 0 
0.0267769 -0.575334 0 
0.0170125 -0.624243 0 
-0.021298 -0.564312 0 
-0.0301837 -0.613067 0 
0.00683187 -0.672776 0 
-0.00430182 -0.720793 0 
-0.041365 -0.661462 0 
-0.0525279 -0.709656 0 
-0.0221076 -0.362285 0 
-0.0351336 -0.408913 0 
-0.0689715 -0.349075 0 
-0.0824047 -0.396501 0 
-0.0471436 -0.457354 0 
-0.0585751 -0.50598 0 
-0.0939915 -0.445529 0 
-0.106753 -0.493033 0 
-0.069298 -0.5546 0 
-0.079305 -0.603362 0 
-0.117652 -0.541929 0 
-0.127674 -0.591527 0 
-0.0906907 -0.652558 0 
-0.100686 -0.700873 0 
-0.138878 -0.639927 0 
-0.147591 -0.689848 0 
VECTORS velocity double
-1.10957 -1.88044 0 
-1.49362 -1.39916 0 
-1.36521 -1.41099 0 
-1.56725 -1.25093 0 
-1.19604 -1.91074 0 
-1.53984 -1.63546 0 
-1.39588 -1.4134 0 
-1.27939 -1.56957 0 
-1.53237 -1.63414 0 
-1.30931 -1.6526 0 
-1.32661 -1.15279 0 
-1.65187 -1.36411 0 
-0.946527 -0.465575 0 
-0.425745 -1.06988 0 
-1.61646 -0.513023 0 
-1.52781 -0.895105 0 
-1.39645 -1.94225 0 
-0.861052 -2.29856 0 
-1.7422 -1.38086 0 
-1.45334 -1.59402 0 
-1.31797 -1.70615 0 
-1.25093 -1.88625 0 
-1.72785 -1.40109 0 
-1.71446 -1.17349 0 
-1.41115 -1.46277 0 
-1.39386 -1.28399 0 
-1.83434 -1.05961 0 
-1.51492 -1.16087 0 
-1.60008 -1.20593 0 
-1.45435 -1.4358 0 
-1.57844 -0.987351 0 
-1.61778 -1.21001 0 
-1.66476 -2.00641 0 
-1.45129 -1.79208 0 
-1.6066 -1.87107 0 
-1.81358 -1.94931 0 
-1.41132 -1.94268 0 
-1.26314 -1.85608 0 
-1.90443 -1.67123 0 
-2.00387 -1.74621 0 
-1.20911 -1.67918 0 
-1.2657 -1.40063 0 
-2.19545 -2.2107 0 
-1.96224 -1.50539 0 
-1.59173 -1.41883 0 
-1.54543 -1.3347 0 
-1.87369 -1.40105 0 
-1.56249 -1.80051 0 
-1.43288 -1.49654 0 
-1.82101 -1.47656 0 
-1.99517 -1.69932 0 
-1.60101 -1.38147 0 
-1.5099 -1.52202 0 
-1.52241 -1.39718 0 
-1.4421 -1.86356 0 
-1.61452 -1.47142 0 
-1.42866 -1.45657 0 
-1.6195 -1.43508 0 
-1.53809 -1.43598 0 
-1.7494 -1.81213 0 
-1.53976 -1.67054 0 
-1.50493 -1.54512 0 
-1.67719 -1.46013 0 
-1.8594 -1.32541 0 
SCALARS mass double 1
LOOKUP_TABLE default
0.625
0.625
0.625
0.625
0.625
0.625
0.625
0.625
0.625
0.625
0.625
0.625
0.625
0.625
0.625
0.625
0.625
0.625
0.625
0.625
0.625
0.625
0.625
0.625
0.625
0.625
0.625
0.625
0.625
0.625
0.625
0.625
0.625
0.625
0.625
0.625
0.625
0.625
0.625
0.625
0.625
0.625
0.625
0.625
0.625
0.625
0.625
0.625
0.625
0.625
0.625
0.625
0.625
0.625
0.625
0.625
0.625
0.625
0.625
0.625
0.625
0.625
0.625
0.625
SCALARS volume double 1
LOOKUP_TABLE default
0.000630338
0.000613634
0.000622287
0.000638278
0.000630099
0.000612935
0.00060019
0.000603455
0.000595951
0.000584627
0.000622671
0.000583561
0.000624956
0.000453461
0.000601265
0.000513966
0.000624902
0.000627139
0.00061873
0.000628524
0.000611606
0.000625725
0.000631977
0.000612771
0.000586915
0.000614786
0.000610081
0.000622371
0.000618255
0.000595877
0.000623633
0.000621393
0.000608924
0.000623091
0.000616972
0.000638693
0.000608144
0.000642495
0.00063732
0.000622168
0.000623431
0.000613847
0.000631648
0.000618748
0.000613848
0.000606849
0.00063368
0.000629522
0.000611454
0.000612575
0.000631565
0.000639731
0.000596318
0.000648659
0.000625789
0.000642234
0.000623572
0.000636143
0.000629982
0.000626173
0.000621319
0.000609653
0.000613491
0.000625547
VECTORS momentum double
-0.693483 -1.17528 0 
-0.933515 -0.874477 0 
-0.853257 -0.881866 0 
-0.979529 -0.781833 0 
-0.747526 -1.19421 0 
-0.962401 -1.02216 0 
-0.872423 -0.883375 0 
-0.79962 -0.980979 0 
-0.957733 -1.02133 0 
-0.81832 -1.03287 0 
-0.82913 -0.720492 0 
-1.03242 -0.852569 0 
-0.591579 -0.290984 0 
-0.266091 -0.668673 0 
-1.01029 -0.320639 0 
-0.954878 -0.559441 0 
-0.872781 -1.21391 0 
-0.538157 -1.4366 0 
-1.08887 -0.863035 0 
-0.908337 -0.996265 0 
-0.823733 -1.06634 0 
-0.781829 -1.17891 0 
-1.07991 -0.875679 0 
-1.07154 -0.733434 0 
-0.881972 -0.91423 0 
-0.871164 -0.802494 0 
-1.14646 -0.662256 0 
-0.946823 -0.725541 0 
-1.00005 -0.753705 0 
-0.90897 -0.897377 0 
-0.986526 -0.617095 0 
-1.01111 -0.756254 0 
-1.04047 -1.254 0 
-0.907059 -1.12005 0 
-1.00412 -1.16942 0 
-1.13349 -1.21832 0 
-0.882075 -1.21418 0 
-0.789463 -1.16005 0 
-1.19027 -1.04452 0 
-1.25242 -1.09138 0 
-0.755695 -1.04949 0 
-0.791065 -0.875395 0 
-1.37216 -1.38168 0 
-1.2264 -0.940866 0 
-0.994832 -0.886772 0 
-0.965894 -0.834185 0 
-1.17105 -0.875654 0 
-0.976559 -1.12532 0 
-0.895548 -0.935338 0 
-1.13813 -0.922848 0 
-1.24698 -1.06207 0 
-1.00063 -0.86342 0 
-0.943689 -0.951264 0 
-0.951506 -0.873239 0 
-0.901313 -1.16473 0 
-1.00908 -0.919635 0 
-0.89291 -0.910355 0 
-1.01218 -0.896922 0 
-0.961307 -0.897485 0 
-1.09337 -1.13258 0 
-0.96235 -1.04409 0 
-0.940579 -0.965697 0 
-1.04824 -0.91258 0 
-1.16213 -0.828382 0 
VECTORS body_force double
0 -9.81 0 
0 -9.81 0 
0 -9.81 0 
0 -9.81 0 
0 -9.81 0 
0 -9.81 0 
0 -9.81 0 
0 -9.81 0 
0 -9.81 0 
0 -9.81 0 
0 -9.81 0 
0 -9.81 0 
0 -9.81 0 
0 -9.81 0 
0 -9.81 0 
0 -9.81 0 
0 -9.81 0 
0 -9.81 0 
0 -9.81 0 
0 -9.81 0 
0 -9.81 0 
0 -9.81 0 
0 -9.81 0 
0 -9.81 0 
0 -9.81 0 
0 -9.81 0 
0 -9.81 0 
0 -9.81 0 
0 -9.81 0 
0 -9.81 0 
0 -9.81 0 
0 -9.81 0 
0 -9.81 0 
0 -9.81 0 
0 -9.81 0 
0 -9.81 0 
0 -9.81 0 
0 -9.81 0 
0 -9.81 0 
0 -9.81 0 
0 -9.81 0 
0 -9.81 0 
0 -9.81 0 
0 -9.81 0 
0 -9.81 0 
0 -9.81 0 
0 -9.81 0 
0 -9.81 0 
0 -9.81 0 
0 -9.81 0 
0 -9.81 0 
0 -9.81 0 
0 -9.81 0 
0 -9.81 0 
0 -9.81 0 
0 -9.81 0 
0 -9.81 0 
0 -9.81 0 
0 -9.81 0 
0 -9.81 0 
0 -9.81 0 
0 -9.81 0 
0 -9.81 0 
0 -9.81 0 
TENSORS cauchy_stress double
1206.62 -643.7 0
-643.7 428.921 0
0 0 0

-2335.66 -2202.39 0
-2202.39 -1193.75 0
0 0 0

-702.941 1819.75 0
1819.75 -133.782 0
0 0 0

3364.44 485.768 0
485.768 678.442 0
0 0 0

1646.4 86.2097 0
86.2097 -83.8218 0
0 0 0

-427.929 -1681.39 0
-1681.39 -3320.82 0
0 0 0

-3007.42 -272.799 0
-272.799 -4781.97 0
0 0 0

-3731.29 1191.29 0
1191.29 -3014.89 0
0 0 0

-1881.13 2003.38 0
2003.38 -7271.33 0
0 0 0

-3187.36 -1335.29 0
-1335.29 -9654.52 0
0 0 0

1339.28 -1620.25 0
-1620.25 -2057.26 0
0 0 0

-2646.1 -1759.18 0
-1759.18 -10546.8 0
0 0 0

3958.57 -1565.29 0
-1565.29 -3972.16 0
0 0 0

-12274.3 -1454.27 0
-1454.27 -49426.1 0
0 0 0

777.156 1013.77 0
1013.77 -8222.66 0
0 0 0

-10123.7 1734.98 0
1734.98 -27490.6 0
0 0 0

1312.23 -412.981 0
-412.981 -1342.5 0
0 0 0

-361.577 1558.4 0
1558.4 1018.6 0
0 0 0

-4284.33 3902.58 0
3902.58 2345.28 0
0 0 0

312.514 261.447 0
261.447 768.686 0
0 0 0

597.174 368.065 0
368.065 -4763.28 0
0 0 0

3597.22 1003.27 0
1003.27 -3374.23 0
0 0 0

2158.85 3642.69 0
3642.69 -23.912 0
0 0 0

-1018.21 -562.607 0
-562.607 -2781.77 0
0 0 0

-4242.3 2151.96 0
2151.96 -7848.31 0
0 0 0

319.792 460.579 0
460.579 -3488.51 0
0 0 0

-764.614 -2195.57 0
-2195.57 -3881.45 0
0 0 0

-1529.67 -525.828 0
-525.828 719.097 0
0 0 0

948.599 2789.08 0
2789.08 -3035.38 0
0 0 0

-2079.28 1729.08 0
1729.08 -7097.2 0
0 0 0

-126.461 246.088 0
246.088 -294.667 0
0 0 0

-1202.49 1024.6 0
1024.6 89.4347 0
0 0 0

-2797.62 -1532.42 0
-1532.42 -2213.64 0
0 0 0

-521.478 2421.21 0
2421.21 -66.7178 0
0 0 0

-2537.33 2419.23 0
2419.23 51.2681 0
0 0 0

2135.66 2785.42 0
2785.42 2032.17 0
0 0 0

-4094.63 -3373.07 0
-3373.07 -1162.98 0
0 0 0

1941.33 3590.46 0
3590.46 3367.88 0
0 0 0

2477.02 -756.986 0
-756.986 1276.88 0
0 0 0

3798.81 -620.159 0
-620.159 -4672.1 0
0 0 0

-2253.52 -2015.7 0
-2015.7 1770.01 0
0 0 0

-2606.84 2194.8 0
2194.8 -855.714 0
0 0 0

292.717 394.619 0
394.619 1742.01 0
0 0 0

835.742 -134.026 0
-134.026 -2769.07 0
0 0 0

437.613 1401.27 0
1401.27 -3900.05 0
0 0 0

-3944.73 1840.21 0
1840.21 -1722.98 0
0 0 0

37.3596 -1841.7 0
-1841.7 2614.93 0
0 0 0

-1560.26 712.725 0
712.725 2946.68 0
0 0 0

-2606.16 -1388.96 0
-1388.96 -1607.71 0
0 0 0

-2438.05 -416.354 0
-416.354 -1423.6 0
0 0 0

2298.11 917.051 0
917.051 -288.617 0
0 0 0

2230.13 2383.34 0
2383.34 2249.84 0
0 0 0

-7052.5 1098.57 0
1098.57 -1981.69 0
0 0 0

2793.83 -400.657 0
-400.657 4351.5 0
0 0 0

-808.968 1345.09 0
1345.09 1051.44 0
0 0 0

2163.76 1071.99 0
1071.99 3067.27 0
0 0 0

-1879.54 -1533.01 0
-1533.01 1439.59 0
0 0 0

-334.921 1637.22 0
1637.22 3733.3 0
0 0 0

1595.97 3118.37 0
3118.37 -69.0621 0
0 0 0

100.197 1270.86 0
1270.86 260.46 0
0 0 0

-2000.36 -1351.52 0
-1351.52 864.261 0
0 0 0

-5791.52 -898.299 0
-898.299 1010.44 0
0 0 0

-76.4856 1320.97 0
1320.97 -3497.79 0
0 0 0

656.26 -72.3072 0
-72.3072 -488.172 0
0 0 0

TENSORS velocity_gradient double
2.6776 2.44552 0
-1.42977 -1.95666 0
0 0 0

0.819773 1.54667 0
-0.404049 -1.4604 0
0 0 0

2.85177 -1.46957 0
-1.06492 -1.19498 0
0 0 0

1.49676 0.0402342 0
0.414316 -1.06686 0
0 0 0

-0.52987 1.58633 0
-0.232351 -0.0743726 0
0 0 0

0.52047 1.43107 0
-3.19251 -0.98877 0
0 0 0

1.23609 0.231986 0
-0.825695 -1.66292 0
0 0 0

0.910846 1.08066 0
-2.6501 -3.02322 0
0 0 0

0.854937 -4.23178 0
-5.01121 -5.98692 0
0 0 0

2.48255 -6.17345 0
-5.58711 -8.31597 0
0 0 0

0.587 0.934988 0
-4.5281 -3.86798 0
0 0 0

2.29329 -4.20243 0
-2.89037 -8.37783 0
0 0 0

4.82408 -8.99409 0
-5.75987 -12.0844 0
0 0 0

9.6563 -13.1714 0
-3.49149 -18.396 0
0 0 0

5.07855 -3.38511 0
4.28315 -7.59421 0
0 0 0

7.77809 -8.12156 0
4.98589 -20.0948 0
0 0 0

2.11323 -3.42849 0
1.59515 -1.57768 0
0 0 0

1.61315 -0.22125 0
0.957835 -2.28798 0
0 0 0

2.50934 -4.20513 0
1.50879 -1.40835 0
0 0 0

3.52382 -1.17406 0
0.657757 -2.83481 0
0 0 0

1.35243 -0.334191 0
-0.25971 -2.81541 0
0 0 0

2.21825 0.70375 0
-0.464805 -4.73844 0
0 0 0

3.69467 -0.760562 0
0.558434 -3.25707 0
0 0 0

3.14066 -0.492222 0
0.522513 -4.41711 0
0 0 0

2.26686 0.435057 0
-0.596094 -5.26291 0
0 0 0

2.29624 -1.90774 0
-0.421901 -5.54554 0
0 0 0

2.53113 -0.196617 0
-0.221227 -6.15891 0
0 0 0

1.99337 -0.419862 0
-0.0151602 -5.86278 0
0 0 0

4.30297 -1.32556 0
2.97302 -4.11514 0
0 0 0

6.61865 -2.76187 0
5.32409 -15.6739 0
0 0 0

1.26187 0.028896 0
4.35627 -1.38956 0
0 0 0

0.222012 -0.393079 0
4.64256 -1.27462 0
0 0 0

1.76937 -3.53669 0
-1.06946 -0.723642 0
0 0 0

3.62727 -2.39778 0
0.0469444 -0.0392748 0
0 0 0

0.911693 -1.65339 0
-1.58484 0.408023 0
0 0 0

1.3464 -0.825584 0
-1.44598 0.934035 0
0 0 0

3.96512 -1.27996 0
0.513564 -3.1709 0
0 0 0

2.73789 -1.33773 0
0.362749 -2.95669 0
0 0 0

-1.04328 -0.770772 0
-2.69052 -1.713 0
0 0 0

0.684952 0.0433443 0
-0.896483 -1.43257 0
0 0 0

2.30007 -0.670442 0
1.66318 -6.06067 0
0 0 0

2.05822 -0.768707 0
3.34604 -5.3769 0
0 0 0

2.14564 -0.0290907 0
0.856494 -2.56429 0
0 0 0

2.17192 -0.9916 0
2.55487 -3.82591 0
0 0 0

1.55659 -0.864324 0
4.43051 -1.19974 0
0 0 0

0.642455 -1.30746 0
4.57576 -1.12933 0
0 0 0

1.13986 -1.07263 0
2.0232 -2.47644 0
0 0 0

1.72618 -1.13452 0
1.54896 -0.890752 0
0 0 0

0.343878 -1.77196 0
-2.35241 1.80698 0
0 0 0

-0.478374 -1.12712 0
-2.86756 0.972024 0
0 0 0

1.0582 -3.62799 0
-1.33197 0.204866 0
0 0 0

-0.0679717 -1.86751 0
-2.76669 0.790044 0
0 0 0

-1.25858 -1.52799 0
-3.05933 0.873494 0
0 0 0

-0.182576 1.82964 0
-1.80573 0.407187 0
0 0 0

-0.536129 -1.97198 0
-0.859165 0.0843518 0
0 0 0

-0.258404 1.35878 0
-2.53406 0.802578 0
0 0 0

-0.502224 2.17365 0
-1.6703 0.956773 0
0 0 0

-0.358071 -0.566204 0
-0.79599 -2.32001 0
0 0 0

-0.545901 1.90886 0
-2.13893 1.53218 0
0 0 0

-0.67082 0.69865 0
-1.41599 -0.136305 0
0 0 0

0.468229 -0.177882 0
0.610554 -1.659 0
0 0 0

1.35623 -0.165371 0
1.43251 -0.585708 0
0 0 0

0.800146 0.465403 0
-3.12091 -0.252818 0
0 0 0

1.2981 0.42072 0
-4.59192 0.116351 0
0 0 0

SCALARS active double 1
LOOKUP_TABLE default
1
1
1
1
1
1
1
1
1
1
1
1
1
1
1
1
1
1
1
1
1
1
1
1
1
1
1
1
1
1
1
1
1
1
1
1
1
1
1
1
1
1
1
1
1
1
1
1
1
1
1
1
1
1
1
1
1
1
1
1
1
1
1
1
SCALARS extent double 1
LOOKUP_TABLE default
0.0125
0.0125
0.0125
0.0125
0.0125
0.0125
0.0125
0.0125
0.0125
0.0125
0.0125
0.0125
0.0125
0.0125
0.0125
0.0125
0.0125
0.0125
0.0125
0.0125
0.0125
0.0125
0.0125
0.0125
0.0125
0.0125
0.0125
0.0125
0.0125
0.0125
0.0125
0.0125
0.0125
0.0125
0.0125
0.0125
0.0125
0.0125
0.0125
0.0125
0.0125
0.0125
0.0125
0.0125
0.0125
0.0125
0.0125
0.0125
0.0125
0.0125
0.0125
0.0125
0.0125
0.0125
0.0125
0.0125
0.0125
0.0125
0.0125
0.0125
0.0125
0.0125
0.0125
0.0125
SCALARS pressure double 1
LOOKUP_TABLE default
-817.772
1764.7
418.361
-2021.44
-781.288
1874.38
3894.7
3373.09
4576.23
6420.94
358.99
6596.45
6.79424
30850.2
3722.75
18807.1
15.1336
-328.511
969.524
-540.6
2083.05
-111.495
-1067.47
1899.99
6045.3
1584.36
2323.03
405.285
1043.39
4588.24
210.564
556.527
2505.63
294.098
1243.03
-2083.92
2628.81
-2654.6
-1876.95
436.648
241.752
1731.28
-1017.36
966.666
1731.22
2833.85
-1326.14
-693.206
2106.94
1930.82
-1004.75
-2239.99
4517.1
-3572.66
-121.237
-2615.52
219.972
-1699.19
-763.454
-180.328
568.051
2390.54
1787.14
-84.044
SCALARS density double 1
LOOKUP_TABLE default
991.531
1018.52
1004.36
979.196
991.908
1019.68
1041.34
1035.7
1048.74
1069.06
1003.74
1071.01
1000.07
1378.29
1039.48
1216.03
1000.16
996.589
1010.13
994.394
1021.9
998.841
988.96
1019.96
1064.89
1016.61
1024.45
1004.22
1010.91
1048.87
1002.19
1005.8
1026.4
1003.06
1013.01
978.56
1027.72
972.77
980.669
1004.55
1002.52
1018.17
989.475
1010.1
1018.17
1029.91
986.303
992.817
1022.15
1020.28
989.605
976.973
1048.1
963.526
998.74
973.165
1002.29
982.484
992.092
998.126
1005.93
1025.17
1018.76
999.126
