# vtk DataFile Version 3.0
Frame: 41, Time: 0.7
ASCII
DATASET UNSTRUCTURED_GRID
POINTS 64 double
0.0464499 0.0745973 0 
0.0460236 0.100255 0 
0.0714116 0.0765506 0 
0.0695749 0.10136 0 
0.043613 0.126867 0 
0.0442389 0.154345 0 
0.0679999 0.127078 0 
0.0678729 0.154156 0 
0.04203 0.181159 0 
0.0407164 0.209793 0 
0.0663237 0.181659 0 
0.0639802 0.208958 0 
0.0429507 0.235815 0 
0.0411149 0.260515 0 
0.0659823 0.235782 0 
0.0642869 0.261665 0 
0.0967602 0.079784 0 
0.0925222 0.10409 0 
0.121166 0.0816795 0 
0.116337 0.106088 0 
0.0903992 0.129556 0 
0.088444 0.155561 0 
0.115217 0.131627 0 
0.112125 0.15624 0 
0.0872406 0.182914 0 
0.085391 0.209744 0 
0.111173 0.182858 0 
0.110101 0.208471 0 
0.0871047 0.236445 0 
0.0873841 0.264712 0 
0.110954 0.235429 0 
0.110601 0.262224 0 
0.145464 0.0829159 0 
0.13905 0.108447 0 
0.171713 0.0885697 0 
0.163499 0.112999 0 
0.138555 0.134243 0 
0.135271 0.158706 0 
0.163307 0.137895 0 
0.159454 0.162026 0 
0.134865 0.184352 0 
0.134339 0.209496 0 
0.158811 0.187191 0 
0.15839 0.211505 0 
0.134061 0.237539 0 
0.133842 0.263576 0 
0.15772 0.237806 0 
0.157977 0.264329 0 
0.196836 0.0916639 0 
0.187329 0.116869 0 
0.220533 0.0945386 0 
0.21174 0.119448 0 
0.1878 0.14077 0 
0.184319 0.164436 0 
0.213607 0.14235 0 
0.210087 0.166623 0 
0.183128 0.188996 0 
0.183415 0.21368 0 
0.208123 0.192274 0 
0.209017 0.217276 0 
0.181659 0.239228 0 
0.181504 0.264071 0 
0.20659 0.242841 0 
0.207223 0.267343 0 
CELLS 64 128
1 0
1 1
1 2
1 3
1 4
1 5
1 6
1 7
1 8
1 9
1 10
1 11
1 12
1 13
1 14
1 15
1 16
1 17
1 18
1 19
1 20
1 21
1 22
1 23
1 24
1 25
1 26
1 27
1 28
1 29
1 30
1 31
1 32
1 33
1 34
1 35
1 36
1 37
1 38
1 39
1 40
1 41
1 42
1 43
1 44
1 45
1 46
1 47
1 48
1 49
1 50
1 51
1 52
1 53
1 54
1 55
1 56
1 57
1 58
1 59
1 60
1 61
1 62
1 63
CELL_TYPES 64
1
1
1
1
1
1
1
1
1
1
1
1
1
1
1
1
1
1
1
1
1
1
1
1
1
1
1
1
1
1
1
1
1
1
1
1
1
1
1
1
1
1
1
1
1
1
1
1
1
1
1
1
1
1
1
1
1
1
1
1
1
1
1
1
POINT_DATA 64
VECTORS displacement double
-0.36605 -0.337903 0 
-0.366476 -0.337245 0 
-0.366088 -0.335949 0 
-0.367925 -0.33614 0 
-0.368887 -0.335633 0 
-0.368261 -0.333155 0 
-0.3695 -0.335422 0 
-0.369627 -0.333344 0 
-0.37047 -0.331341 0 
-0.371784 -0.327707 0 
-0.371176 -0.330841 0 
-0.37352 -0.328542 0 
-0.369549 -0.326685 0 
-0.371385 -0.326985 0 
-0.371518 -0.326718 0 
-0.373213 -0.325835 0 
-0.36574 -0.332716 0 
-0.369978 -0.33341 0 
-0.366334 -0.330821 0 
-0.371163 -0.331412 0 
-0.372101 -0.332944 0 
-0.374056 -0.331939 0 
-0.372283 -0.330873 0 
-0.375375 -0.33126 0 
-0.375259 -0.329586 0 
-0.377109 -0.327756 0 
-0.376327 -0.329642 0 
-0.377399 -0.329029 0 
-0.375395 -0.326055 0 
-0.375116 -0.322788 0 
-0.376546 -0.327071 0 
-0.376899 -0.325276 0 
-0.367036 -0.329584 0 
-0.37345 -0.329053 0 
-0.365787 -0.32393 0 
-0.374001 -0.324501 0 
-0.373945 -0.328257 0 
-0.377229 -0.328794 0 
-0.374193 -0.324605 0 
-0.378046 -0.325474 0 
-0.377635 -0.328148 0 
-0.378161 -0.328004 0 
-0.378689 -0.325309 0 
-0.37911 -0.325995 0 
-0.378439 -0.324961 0 
-0.378658 -0.323924 0 
-0.37978 -0.324694 0 
-0.379523 -0.323171 0 
-0.365664 -0.320836 0 
-0.375171 -0.320631 0 
-0.366967 -0.317961 0 
-0.37576 -0.318052 0 
-0.3747 -0.32173 0 
-0.378181 -0.323064 0 
-0.373893 -0.32015 0 
-0.377413 -0.320877 0 
-0.379372 -0.323504 0 
-0.379085 -0.32382 0 
-0.379377 -0.320226 0 
-0.378483 -0.320224 0 
-0.380841 -0.323272 0 
-0.380996 -0.323429 0 
-0.38091 -0.319659 0 
-0.380277 -0.320157 0 
VECTORS velocity double
0.132146 0.847772 0 
0.675743 1.53345 0 
-0.213405 1.0068 0 
0.0988252 0.892285 0 
0.276491 0.785946 0 
0.207263 1.00042 0 
0.515232 0.167726 0 
0.464367 0.802768 0 
0.418892 1.04259 0 
0.038618 0.806977 0 
0.443259 0.816348 0 
0.474056 0.413387 0 
0.347893 0.668163 0 
-0.0923947 0.708735 0 
0.483599 0.598162 0 
0.416946 0.466301 0 
0.237299 0.541761 0 
0.151929 0.802551 0 
0.169712 0.452923 0 
0.483941 0.856713 0 
0.393534 0.348283 0 
0.426662 0.919555 0 
0.55062 0.468505 0 
0.382639 0.885264 0 
0.3282 0.83424 0 
0.531131 0.47566 0 
0.321178 0.927238 0 
0.468902 0.477313 0 
0.31537 0.792632 0 
0.180561 0.618799 0 
0.318927 0.812127 0 
0.358647 0.412156 0 
0.00488639 0.256979 0 
0.199094 0.342106 0 
0.0763935 0.310825 0 
0.252657 0.50565 0 
0.305252 0.086574 0 
0.426982 0.534099 0 
0.395967 0.0554441 0 
0.411621 0.617809 0 
0.247986 0.463854 0 
0.586976 0.181353 0 
0.0382525 0.655719 0 
0.439304 0.365069 0 
0.198523 0.101789 0 
0.359993 0.211742 0 
0.129223 0.393551 0 
0.413302 0.439426 0 
0.328482 -0.184544 0 
0.288387 0.285775 0 
0.296665 0.190188 0 
-0.0674699 0.113734 0 
-0.070334 -0.267888 0 
0.206241 0.320377 0 
0.127269 0.0140167 0 
0.0807819 0.137749 0 
0.0794331 0.51153 0 
0.343311 -0.0923401 0 
-0.0504763 0.168152 0 
0.161588 -0.0499922 0 
0.00220988 0.3422 0 
0.364551 0.204422 0 
0.221084 0.165832 0 
0.469894 0.174604 0 
SCALARS mass double 1
LOOKUP_TABLE default
0.625
0.625
0.625
0.625
0.625
0.625
0.625
0.625
0.625
0.625
0.625
0.625
0.625
0.625
0.625
0.625
0.625
0.625
0.625
0.625
0.625
0.625
0.625
0.625
0.625
0.625
0.625
0.625
0.625
0.625
0.625
0.625
0.625
0.625
0.625
0.625
0.625
0.625
0.625
0.625
0.625
0.625
0.625
0.625
0.625
0.625
0.625
0.625
0.625
0.625
0.625
0.625
0.625
0.625
0.625
0.625
0.625
0.625
0.625
0.625
0.625
0.625
0.625
0.625
SCALARS volume double 1
LOOKUP_TABLE default
0.000658044
0.000617577
0.000617118
0.000607878
0.000615353
0.00061753
0.000636842
0.000618
0.000575429
0.000562653
0.000629194
0.000633995
0.000537767
0.000553382
0.000593807
0.000608384
0.000639697
0.00060568
0.000628543
0.000626594
0.000606789
0.000601722
0.000630263
0.000619504
0.000616446
0.000582036
0.000622866
0.000633584
0.000621614
0.000596197
0.000598907
0.000603888
0.000620284
0.000605883
0.000626308
0.00062444
0.000626342
0.000608869
0.000620736
0.000599901
0.00062094
0.000598022
0.000657295
0.000592145
0.00062443
0.000607399
0.000650997
0.000621014
0.000632901
0.000618042
0.000621515
0.000629425
0.000591213
0.000611552
0.000615705
0.000625073
0.000603378
0.000608163
0.000633652
0.000616674
0.000617965
0.00062216
0.0006299
0.000627495
VECTORS momentum double
0.0825913 0.529857 0 
0.422339 0.958406 0 
-0.133378 0.629253 0 
0.0617658 0.557678 0 
0.172807 0.491216 0 
0.129539 0.625263 0 
0.32202 0.104829 0 
0.290229 0.50173 0 
0.261808 0.651619 0 
0.0241363 0.50436 0 
0.277037 0.510217 0 
0.296285 0.258367 0 
0.217433 0.417602 0 
-0.0577467 0.442959 0 
0.302249 0.373851 0 
0.260591 0.291438 0 
0.148312 0.3386 0 
0.0949557 0.501594 0 
0.10607 0.283077 0 
0.302463 0.535446 0 
0.245958 0.217677 0 
0.266664 0.574722 0 
0.344137 0.292815 0 
0.23915 0.55329 0 
0.205125 0.5214 0 
0.331957 0.297287 0 
0.200736 0.579524 0 
0.293063 0.298321 0 
0.197106 0.495395 0 
0.11285 0.386749 0 
0.19933 0.507579 0 
0.224154 0.257598 0 
0.00305399 0.160612 0 
0.124434 0.213816 0 
0.0477459 0.194266 0 
0.157911 0.316031 0 
0.190782 0.0541087 0 
0.266864 0.333812 0 
0.24748 0.0346526 0 
0.257263 0.386131 0 
0.154991 0.289909 0 
0.36686 0.113345 0 
0.0239078 0.409824 0 
0.274565 0.228168 0 
0.124077 0.0636184 0 
0.224996 0.132339 0 
0.0807644 0.245969 0 
0.258314 0.274641 0 
0.205301 -0.11534 0 
0.180242 0.178609 0 
0.185416 0.118868 0 
-0.0421687 0.071084 0 
-0.0439588 -0.16743 0 
0.128901 0.200236 0 
0.0795433 0.00876041 0 
0.0504887 0.0860929 0 
0.0496457 0.319706 0 
0.214569 -0.0577126 0 
-0.0315477 0.105095 0 
0.100992 -0.0312452 0 
0.00138118 0.213875 0 
0.227845 0.127764 0 
0.138178 0.103645 0 
0.293684 0.109127 0 
VECTORS body_force double
0 -9.81 0 
0 -9.81 0 
0 -9.81 0 
0 -9.81 0 
0 -9.81 0 
0 -9.81 0 
0 -9.81 0 
0 -9.81 0 
0 -9.81 0 
0 -9.81 0 
0 -9.81 0 
0 -9.81 0 
0 -9.81 0 
0 -9.81 0 
0 -9.81 0 
0 -9.81 0 
0 -9.81 0 
0 -9.81 0 
0 -9.81 0 
0 -9.81 0 
0 -9.81 0 
0 -9.81 0 
0 -9.81 0 
0 -9.81 0 
0 -9.81 0 
0 -9.81 0 
0 -9.81 0 
0 -9.81 0 
0 -9.81 0 
0 -9.81 0 
0 -9.81 0 
0 -9.81 0 
0 -9.81 0 
0 -9.81 0 
0 -9.81 0 
0 -9.81 0 
0 -9.81 0 
0 -9.81 0 
0 -9.81 0 
0 -9.81 0 
0 -9.81 0 
0 -9.81 0 
0 -9.81 0 
0 -9.81 0 
0 -9.81 0 
0 -9.81 0 
0 -9.81 0 
0 -9.81 0 
0 -9.81 0 
0 -9.81 0 
0 -9.81 0 
0 -9.81 0 
0 -9.81 0 
0 -9.81 0 
0 -9.81 0 
0 -9.81 0 
0 -9.81 0 
0 -9.81 0 
0 -9.81 0 
0 -9.81 0 
0 -9.81 0 
0 -9.81 0 
0 -9.81 0 
0 -9.81 0 
TENSORS cauchy_stress double
3646.45 1707.82 0
1707.82 6261.25 0
0 0 0

-7073.28 -1061.64 0
-1061.64 4775.53 0
0 0 0

-956.649 -1430.97 0
-1430.97 -1483.98 0
0 0 0

-5380.13 -1442.05 0
-1442.05 38.2254 0
0 0 0

-10075.7 2263.6 0
2263.6 7084.23 0
0 0 0

-11172.7 3647.01 0
3647.01 8860.39 0
0 0 0

-884.643 -1054.78 0
-1054.78 4494.18 0
0 0 0

-8398.97 -1498.29 0
-1498.29 6233.02 0
0 0 0

-17967.9 -875.187 0
-875.187 2076.44 0
0 0 0

-22537 2636.55 0
2636.55 2327.53 0
0 0 0

-5558.77 -4066.28 0
-4066.28 6844.93 0
0 0 0

-4038.28 1518.43 0
1518.43 6786.29 0
0 0 0

-19275.7 -203.476 0
-203.476 -9633.23 0
0 0 0

-23079.3 384.689 0
384.689 -325.137 0
0 0 0

-13384.4 -3245.34 0
-3245.34 3538.76 0
0 0 0

-5197.39 -2142.35 0
-2142.35 15.5633 0
0 0 0

4137.34 -480.558 0
-480.558 332.604 0
0 0 0

-7934.36 1785.32 0
1785.32 1896.04 0
0 0 0

2104.33 -968.087 0
-968.087 -1017.12 0
0 0 0

-2525.79 1886.8 0
1886.8 3015.67 0
0 0 0

-7099.99 4291.2 0
4291.2 1413.36 0
0 0 0

-10303.8 1470.67 0
1470.67 3004.49 0
0 0 0

579.058 1920.61 0
1920.61 1033.69 0
0 0 0

-3744.23 15.6182 0
15.6182 2045.78 0
0 0 0

-9003.46 -234.277 0
-234.277 6353.15 0
0 0 0

-11627.9 -687.479 0
-687.479 -2068.29 0
0 0 0

-6085.46 3101.98 0
3101.98 5427.81 0
0 0 0

-485.907 967.494 0
967.494 3109.29 0
0 0 0

-6659.92 -830.426 0
-830.426 5615.1 0
0 0 0

-8865.73 -3833.02 0
-3833.02 -207.421 0
0 0 0

-9200.63 688.893 0
688.893 999.652 0
0 0 0

-9329.02 2544.85 0
2544.85 2720.71 0
0 0 0

-2201.31 -701.198 0
-701.198 744.741 0
0 0 0

-8746.4 2242.56 0
2242.56 2772.35 0
0 0 0

1988.98 443.075 0
443.075 -1586.96 0
0 0 0

-1591.76 1245.38 0
1245.38 1419.24 0
0 0 0

-1010.81 2547.04 0
2547.04 1423.16 0
0 0 0

-3317.75 869.624 0
869.624 -1710.97 0
0 0 0

226.266 816.05 0
816.05 -1542.74 0
0 0 0

-4112.58 2505.72 0
2505.72 -3769.58 0
0 0 0

-4893.29 3843.86 0
3843.86 3639.94 0
0 0 0

-6184.81 470.463 0
470.463 -2300.52 0
0 0 0

1396.09 4650.59 0
4650.59 8292.7 0
0 0 0

-242.05 728.51 0
728.51 -10142.4 0
0 0 0

-8309.18 1553.3 0
1553.3 8133.84 0
0 0 0

-1914.64 -612.676 0
-612.676 -3578.73 0
0 0 0

-1358.31 3248.65 0
3248.65 9195.48 0
0 0 0

-5223.55 93.8211 0
93.8211 3993.22 0
0 0 0

137.16 197.65 0
197.65 2278.61 0
0 0 0

-4029.06 730.528 0
730.528 1876.12 0
0 0 0

-589.238 568.636 0
568.636 -486.085 0
0 0 0

-302.609 264.815 0
264.815 1659.39 0
0 0 0

-4120.32 768.779 0
768.779 -6567.37 0
0 0 0

-522.744 684.918 0
684.918 -3660.42 0
0 0 0

-1257.09 1723.32 0
1723.32 -1624.37 0
0 0 0

699.183 683.116 0
683.116 -676.697 0
0 0 0

-6258.81 3071.35 0
3071.35 -511.978 0
0 0 0

-1242.75 2195.73 0
2195.73 -4008.92 0
0 0 0

-484.65 753.384 0
753.384 3128.66 0
0 0 0

-534.544 1113.58 0
1113.58 -2044.61 0
0 0 0

-3250.04 3706.63 0
3706.63 1073 0
0 0 0

-867.238 -52.8513 0
-52.8513 -8.56683 0
0 0 0

-207.222 1102.65 0
1102.65 1708.89 0
0 0 0

225.689 682.026 0
682.026 540.489 0
0 0 0

TENSORS velocity_gradient double
2.62826 4.03055 0
-6.79338 -1.23155 0
0 0 0

4.57012 2.52461 0
-5.85142 -1.7241 0
0 0 0

-0.0546203 4.68039 0
-6.64083 -0.135397 0
0 0 0

0.296025 2.91399 0
-5.43356 -0.699115 0
0 0 0

6.0445 0.615889 0
-6.77825 -2.32921 0
0 0 0

6.38572 0.789557 0
-7.17506 -2.94361 0
0 0 0

1.1996 1.38553 0
-3.50674 -1.22843 0
0 0 0

1.95537 0.783335 0
-1.65017 -1.91369 0
0 0 0

6.96636 0.796841 0
-4.70272 -3.33153 0
0 0 0

6.9334 -1.80811 0
-2.80052 -1.08721 0
0 0 0

1.49143 0.638093 0
-0.986905 -2.1456 0
0 0 0

1.14046 -2.19175 0
-0.679149 -1.36034 0
0 0 0

5.76821 -1.90955 0
-3.12582 -1.11553 0
0 0 0

5.11706 0.0509399 0
-3.70952 -0.257202 0
0 0 0

1.2273 -2.1851 0
-0.982438 -1.38358 0
0 0 0

1.38742 0.20415 0
-1.18679 -0.670793 0
0 0 0

-0.225701 4.91359 0
-6.357 0.904102 0
0 0 0

0.365204 2.91087 0
-5.25871 0.722891 0
0 0 0

-0.95245 4.77425 0
-5.91064 0.967234 0
0 0 0

-1.27667 2.37275 0
-6.10662 1.15666 0
0 0 0

1.29719 2.23988 0
-3.30559 0.532359 0
0 0 0

1.96859 0.421729 0
-1.5783 -1.44752 0
0 0 0

-1.90207 2.25237 0
-6.34479 1.17697 0
0 0 0

-2.37302 0.065842 0
-6.25772 -0.801499 0
0 0 0

1.46608 0.223746 0
-0.959966 -1.70525 0
0 0 0

1.14305 -2.12261 0
-0.688197 -1.60183 0
0 0 0

-2.42408 -0.0550618 0
-5.09938 -0.952163 0
0 0 0

-2.16086 -1.71395 0
-4.37815 -1.84793 0
0 0 0

1.22952 -2.11689 0
-0.990173 -1.62179 0
0 0 0

1.41858 0.437703 0
-1.19703 -0.7476 0
0 0 0

-1.15941 -1.68057 0
-4.59167 -1.85504 0
0 0 0

-0.320832 0.812808 0
-4.80086 -0.869355 0
0 0 0

-0.737919 4.46529 0
-5.74646 0.759293 0
0 0 0

-1.33298 1.66078 0
-6.12936 0.953034 0
0 0 0

0.265361 2.23258 0
-4.72366 -0.0434697 0
0 0 0

-1.66151 0.651403 0
-5.09698 0.904969 0
0 0 0

-1.97038 1.67411 0
-6.37064 0.95808 0
0 0 0

-2.38471 -0.0946382 0
-6.15965 0.113774 0
0 0 0

-3.03391 0.662912 0
-4.99024 0.904074 0
0 0 0

-3.62544 -0.0456734 0
-4.99962 0.729547 0
0 0 0

-2.42672 -0.0939755 0
-5.02811 0.0959236 0
0 0 0

-2.11883 -0.813372 0
-4.38712 -2.03994 0
0 0 0

-3.42376 -0.0508385 0
-5.13458 0.733004 0
0 0 0

-2.74427 0.197535 0
-4.53853 -1.68056 0
0 0 0

-1.0771 -0.822839 0
-4.60922 -2.03792 0
0 0 0

-0.286008 1.36516 0
-4.81208 -1.04737 0
0 0 0

-1.38732 0.16271 0
-2.96153 -1.72104 0
0 0 0

-0.0779616 2.11929 0
-1.9351 -1.02231 0
0 0 0

0.100563 -0.337273 0
-3.55852 -0.867873 0
0 0 0

-1.88157 -0.665861 0
-5.07986 1.00742 0
0 0 0

0.514948 -1.93637 0
0.764775 -0.457512 0
0 0 0

-0.515989 -1.79709 0
-0.256819 0.330577 0
0 0 0

-3.19919 -0.692771 0
-4.97739 1.00951 0
0 0 0

-3.60512 0.154495 0
-5.01322 0.595596 0
0 0 0

-1.34939 -1.86665 0
-1.70387 0.209801 0
0 0 0

-1.62832 0.283845 0
-2.55456 0.292549 0
0 0 0

-3.40828 0.144872 0
-5.14494 0.602036 0
0 0 0

-2.62632 1.48992 0
-4.40146 -0.178599 0
0 0 0

-1.62287 0.283426 0
-3.11441 0.335665 0
0 0 0

-0.904378 2.72548 0
-3.31403 0.812371 0
0 0 0

-1.31041 1.39741 0
-2.87215 -0.28611 0
0 0 0

-0.088005 3.2329 0
-1.93929 -0.558007 0
0 0 0

0.164499 2.62099 0
-3.35566 0.81644 0
0 0 0

-0.240144 3.83665 0
-3.02846 -0.0504713 0
0 0 0

SCALARS active double 1
LOOKUP_TABLE default
1
1
1
1
1
1
1
1
1
1
1
1
1
1
1
1
1
1
1
1
1
1
1
1
1
1
1
1
1
1
1
1
1
1
1
1
1
1
1
1
1
1
1
1
1
1
1
1
1
1
1
1
1
1
1
1
1
1
1
1
1
1
1
1
SCALARS extent double 1
LOOKUP_TABLE default
0.0125
0.0125
0.0125
0.0125
0.0125
0.0125
0.0125
0.0125
0.0125
0.0125
0.0125
0.0125
0.0125
0.0125
0.0125
0.0125
0.0125
0.0125
0.0125
0.0125
0.0125
0.0125
0.0125
0.0125
0.0125
0.0125
0.0125
0.0125
0.0125
0.0125
0.0125
0.0125
0.0125
0.0125
0.0125
0.0125
0.0125
0.0125
0.0125
0.0125
0.0125
0.0125
0.0125
0.0125
0.0125
0.0125
0.0125
0.0125
0.0125
0.0125
0.0125
0.0125
0.0125
0.0125
0.0125
0.0125
0.0125
0.0125
0.0125
0.0125
0.0125
0.0125
0.0125
0.0125
SCALARS pressure double 1
LOOKUP_TABLE default
-4953.85
1148.87
1220.32
2670.95
1495.73
1156.17
-1804.77
1082.97
7945.72
10104.7
-643.079
-1374
14454.5
11702.2
4922.84
2590.91
-2234.97
3019.16
-543.605
-244.94
2843.32
3649.63
-806.373
849.225
1325.16
6848.07
328.825
-1311.69
522.411
4536.58
4100.49
3304.15
728.284
2987.02
-201.012
86.2591
-206.178
2514.36
658.235
3941.08
626.675
4242.66
-4844.4
5192.25
87.6689
2746.68
-3918.58
615.168
-1207.89
1076.47
537.661
-678.392
5343.85
2091.58
1440.73
-11.2429
3385.39
2625.84
-1322
1289.58
1088.52
437.903
-750.834
-383.089
SCALARS density double 1
LOOKUP_TABLE default
949.785
1012.02
1012.77
1028.17
1015.68
1012.1
981.405
1011.33
1086.15
1110.81
993.334
985.812
1162.21
1129.42
1052.53
1027.31
977.024
1031.9
994.362
997.456
1030.01
1038.69
991.649
1008.87
1013.88
1073.82
1003.43
986.451
1005.45
1048.31
1043.57
1034.96
1007.6
1031.55
997.912
1000.9
997.858
1026.49
1006.87
1041.84
1006.54
1045.11
950.866
1055.48
1000.91
1028.98
960.066
1006.42
987.517
1011.26
1005.61
992.97
1057.15
1021.99
1015.1
999.883
1035.84
1027.68
986.345
1013.5
1011.38
1004.56
992.222
996.024
