# vtk DataFile Version 3.0
Frame: 50, Time: 0.851
ASCII
DATASET UNSTRUCTURED_GRID
POINTS 64 double
0.0932577 0.0852586 0 
0.103189 0.10809 0 
0.115711 0.0752126 0 
0.125465 0.097843 0 
0.110638 0.132119 0 
0.120862 0.155308 0 
0.13402 0.121207 0 
0.143534 0.144798 0 
0.127786 0.17918 0 
0.13566 0.204158 0 
0.15212 0.169028 0 
0.15904 0.193728 0 
0.147217 0.22692 0 
0.155443 0.249484 0 
0.17022 0.216896 0 
0.179102 0.239981 0 
0.140151 0.0661014 0 
0.14844 0.0893024 0 
0.16203 0.0560073 0 
0.170307 0.0789018 0 
0.156319 0.112997 0 
0.163958 0.136857 0 
0.179587 0.101504 0 
0.18652 0.125018 0 
0.172686 0.161389 0 
0.179971 0.18603 0 
0.19486 0.149278 0 
0.202177 0.173295 0 
0.191169 0.209254 0 
0.202641 0.234175 0 
0.212203 0.197653 0 
0.223289 0.222055 0 
0.184936 0.046371 0 
0.191319 0.0700832 0 
0.214679 0.0411111 0 
0.216844 0.0640711 0 
0.201784 0.0929049 0 
0.208982 0.116469 0 
0.226828 0.0860814 0 
0.232561 0.108757 0 
0.217001 0.139185 0 
0.22418 0.162332 0 
0.239916 0.130354 0 
0.24701 0.153056 0 
0.232618 0.187753 0 
0.243479 0.211038 0 
0.253022 0.177542 0 
0.26206 0.201192 0 
0.241653 0.0372091 0 
0.241433 0.0596213 0 
0.268243 0.0338756 0 
0.266696 0.0543154 0 
0.251249 0.0799564 0 
0.25706 0.101504 0 
0.276846 0.0725644 0 
0.282772 0.0945517 0 
0.264299 0.122648 0 
0.272452 0.144919 0 
0.290152 0.116844 0 
0.298498 0.139022 0 
0.275529 0.169215 0 
0.280935 0.192718 0 
0.299059 0.163372 0 
0.300354 0.187811 0 
CELLS 64 128
1 0
1 1
1 2
1 3
1 4
1 5
1 6
1 7
1 8
1 9
1 10
1 11
1 12
1 13
1 14
1 15
1 16
1 17
1 18
1 19
1 20
1 21
1 22
1 23
1 24
1 25
1 26
1 27
1 28
1 29
1 30
1 31
1 32
1 33
1 34
1 35
1 36
1 37
1 38
1 39
1 40
1 41
1 42
1 43
1 44
1 45
1 46
1 47
1 48
1 49
1 50
1 51
1 52
1 53
1 54
1 55
1 56
1 57
1 58
1 59
1 60
1 61
1 62
1 63
CELL_TYPES 64
1
1
1
1
1
1
1
1
1
1
1
1
1
1
1
1
1
1
1
1
1
1
1
1
1
1
1
1
1
1
1
1
1
1
1
1
1
1
1
1
1
1
1
1
1
1
1
1
1
1
1
1
1
1
1
1
1
1
1
1
1
1
1
1
POINT_DATA 64
VECTORS displacement double
-0.319242 -0.327241 0 
-0.309311 -0.32941 0 
-0.321789 -0.337287 0 
-0.312035 -0.339657 0 
-0.301862 -0.330381 0 
-0.291638 -0.332192 0 
-0.30348 -0.341293 0 
-0.293966 -0.342702 0 
-0.284714 -0.33332 0 
-0.27684 -0.333342 0 
-0.28538 -0.343472 0 
-0.27846 -0.343772 0 
-0.265283 -0.33558 0 
-0.257057 -0.338016 0 
-0.26728 -0.345604 0 
-0.258398 -0.347519 0 
-0.322349 -0.346399 0 
-0.31406 -0.348198 0 
-0.32547 -0.356493 0 
-0.317193 -0.358598 0 
-0.306181 -0.349503 0 
-0.298542 -0.350643 0 
-0.307913 -0.360996 0 
-0.30098 -0.362482 0 
-0.289814 -0.351111 0 
-0.282529 -0.35147 0 
-0.29264 -0.363222 0 
-0.285323 -0.364205 0 
-0.271331 -0.353246 0 
-0.259859 -0.353325 0 
-0.275297 -0.364847 0 
-0.264211 -0.365445 0 
-0.327564 -0.366129 0 
-0.321181 -0.367417 0 
-0.322821 -0.371389 0 
-0.320656 -0.373429 0 
-0.310716 -0.369595 0 
-0.303518 -0.371031 0 
-0.310672 -0.376419 0 
-0.304939 -0.378743 0 
-0.295499 -0.373315 0 
-0.28832 -0.375168 0 
-0.297584 -0.382146 0 
-0.29049 -0.384444 0 
-0.279882 -0.374747 0 
-0.269021 -0.376462 0 
-0.284478 -0.384958 0 
-0.27544 -0.386308 0 
-0.320847 -0.375291 0 
-0.321067 -0.377879 0 
-0.319257 -0.378624 0 
-0.320804 -0.383185 0 
-0.311251 -0.382544 0 
-0.30544 -0.385996 0 
-0.310654 -0.389936 0 
-0.304728 -0.392948 0 
-0.298201 -0.389852 0 
-0.290048 -0.392581 0 
-0.297348 -0.395656 0 
-0.289002 -0.398478 0 
-0.286971 -0.393285 0 
-0.281565 -0.394782 0 
-0.288441 -0.399128 0 
-0.287146 -0.399689 0 
VECTORS velocity double
-0.541605 -0.972312 0 
-0.469591 -0.93302 0 
-0.566307 -0.903172 0 
-0.564934 -1.01735 0 
-0.663501 -1.27675 0 
-0.679777 -0.806725 0 
-0.47443 -1.45454 0 
-0.628494 -0.851499 0 
-0.361564 -0.923578 0 
-0.712725 -1.21813 0 
-0.571293 -0.971533 0 
-0.604152 -1.16805 0 
-0.537024 -0.801169 0 
-0.590898 -0.976094 0 
-0.734005 -0.764352 0 
-0.320791 -1.13065 0 
-0.18503 -1.14364 0 
-0.271565 -0.78648 0 
-0.479385 -0.736905 0 
-0.0958273 -0.412973 0 
-0.635356 -1.0936 0 
-0.709415 -0.670374 0 
-0.472449 -0.877812 0 
-0.599665 -0.726389 0 
-0.606826 -0.741526 0 
-0.395866 -0.872854 0 
-0.523052 -0.623619 0 
-0.364997 -0.728564 0 
-0.66785 -0.598236 0 
-0.572001 -0.727277 0 
-0.530383 -0.434664 0 
-0.141149 -0.784915 0 
0.0383953 -0.580719 0 
-0.4076 -0.427368 0 
0.486313 -0.416319 0 
-0.0815759 -0.0101133 0 
-0.64369 -0.721761 0 
-0.298939 -0.659717 0 
-0.169573 -0.25512 0 
-0.140959 -0.164479 0 
-0.501403 -0.778388 0 
-0.449408 -0.780156 0 
-0.565086 -0.360846 0 
-0.316883 -0.364404 0 
-1.00945 -0.92037 0 
-0.354531 -0.741785 0 
-0.963065 -0.499098 0 
-0.385132 -0.866101 0 
0.1416 -0.427944 0 
0.042781 0.117701 0 
0.539043 -0.386427 0 
-0.115538 -0.0302322 0 
-0.350918 -0.406879 0 
-0.148952 -0.352741 0 
-0.00110108 -0.35223 0 
-0.308371 -0.212664 0 
-0.262862 -0.443413 0 
0.391362 -0.890177 0 
-0.30323 -0.0811804 0 
0.227202 -0.0910875 0 
-0.220492 -0.764532 0 
0.327344 -1.00906 0 
-0.0177528 -0.660975 0 
-0.716961 -0.16857 0 
SCALARS mass double 1
LOOKUP_TABLE default
0.625
0.625
0.625
0.625
0.625
0.625
0.625
0.625
0.625
0.625
0.625
0.625
0.625
0.625
0.625
0.625
0.625
0.625
0.625
0.625
0.625
0.625
0.625
0.625
0.625
0.625
0.625
0.625
0.625
0.625
0.625
0.625
0.625
0.625
0.625
0.625
0.625
0.625
0.625
0.625
0.625
0.625
0.625
0.625
0.625
0.625
0.625
0.625
0.625
0.625
0.625
0.625
0.625
0.625
0.625
0.625
0.625
0.625
0.625
0.625
0.625
0.625
0.625
0.625
SCALARS volume double 1
LOOKUP_TABLE default
0.000627071
0.000628025
0.000615576
0.000618206
0.000633983
0.000629534
0.00063208
0.000608921
0.000620655
0.000634019
0.000621761
0.000639506
0.000631928
0.000626089
0.000607369
0.000614559
0.000649956
0.00062456
0.000627551
0.000582706
0.000631059
0.000621322
0.000623373
0.000616317
0.000617479
0.000589354
0.00062614
0.000617014
0.000617328
0.000621681
0.00057111
0.000618036
0.000608739
0.000591299
0.000557366
0.000630815
0.000650063
0.000600101
0.000614094
0.000561112
0.000601674
0.000595026
0.0006102
0.000601073
0.000579292
0.000596611
0.000584381
0.000521316
0.000501434
0.000587626
0.000478386
0.000595107
0.000562655
0.000588833
0.000598607
0.000599674
0.00059923
0.000644155
0.000596187
0.000575804
0.000588369
0.000570206
0.000489357
0.000354717
VECTORS momentum double
-0.338503 -0.607695 0 
-0.293494 -0.583138 0 
-0.353942 -0.564482 0 
-0.353084 -0.635841 0 
-0.414688 -0.797967 0 
-0.424861 -0.504203 0 
-0.296519 -0.909086 0 
-0.392809 -0.532187 0 
-0.225978 -0.577236 0 
-0.445453 -0.761329 0 
-0.357058 -0.607208 0 
-0.377595 -0.730029 0 
-0.33564 -0.500731 0 
-0.369311 -0.610059 0 
-0.458753 -0.47772 0 
-0.200495 -0.706656 0 
-0.115644 -0.714778 0 
-0.169728 -0.49155 0 
-0.299615 -0.460566 0 
-0.0598921 -0.258108 0 
-0.397097 -0.683501 0 
-0.443385 -0.418984 0 
-0.295281 -0.548633 0 
-0.37479 -0.453993 0 
-0.379266 -0.463454 0 
-0.247416 -0.545534 0 
-0.326907 -0.389762 0 
-0.228123 -0.455352 0 
-0.417406 -0.373897 0 
-0.357501 -0.454548 0 
-0.331489 -0.271665 0 
-0.0882182 -0.490572 0 
0.0239971 -0.362949 0 
-0.25475 -0.267105 0 
0.303946 -0.260199 0 
-0.050985 -0.00632082 0 
-0.402306 -0.4511 0 
-0.186837 -0.412323 0 
-0.105983 -0.15945 0 
-0.0880992 -0.102799 0 
-0.313377 -0.486493 0 
-0.28088 -0.487597 0 
-0.353179 -0.225529 0 
-0.198052 -0.227752 0 
-0.630904 -0.575231 0 
-0.221582 -0.463616 0 
-0.601916 -0.311937 0 
-0.240708 -0.541313 0 
0.0885001 -0.267465 0 
0.0267381 0.0735629 0 
0.336902 -0.241517 0 
-0.0722115 -0.0188951 0 
-0.219324 -0.2543 0 
-0.0930949 -0.220463 0 
-0.000688172 -0.220144 0 
-0.192732 -0.132915 0 
-0.164289 -0.277133 0 
0.244601 -0.556361 0 
-0.189519 -0.0507378 0 
0.142001 -0.0569297 0 
-0.137808 -0.477832 0 
0.20459 -0.630664 0 
-0.0110955 -0.413109 0 
-0.448101 -0.105356 0 
VECTORS body_force double
0 -9.81 0 
0 -9.81 0 
0 -9.81 0 
0 -9.81 0 
0 -9.81 0 
0 -9.81 0 
0 -9.81 0 
0 -9.81 0 
0 -9.81 0 
0 -9.81 0 
0 -9.81 0 
0 -9.81 0 
0 -9.81 0 
0 -9.81 0 
0 -9.81 0 
0 -9.81 0 
0 -9.81 0 
0 -9.81 0 
0 -9.81 0 
0 -9.81 0 
0 -9.81 0 
0 -9.81 0 
0 -9.81 0 
0 -9.81 0 
0 -9.81 0 
0 -9.81 0 
0 -9.81 0 
0 -9.81 0 
0 -9.81 0 
0 -9.81 0 
0 -9.81 0 
0 -9.81 0 
0 -9.81 0 
0 -9.81 0 
0 -9.81 0 
0 -9.81 0 
0 -9.81 0 
0 -9.81 0 
0 -9.81 0 
0 -9.81 0 
0 -9.81 0 
0 -9.81 0 
0 -9.81 0 
0 -9.81 0 
0 -9.81 0 
0 -9.81 0 
0 -9.81 0 
0 -9.81 0 
0 -9.81 0 
0 -9.81 0 
0 -9.81 0 
0 -9.81 0 
0 -9.81 0 
0 -9.81 0 
0 -9.81 0 
0 -9.81 0 
0 -9.81 0 
0 -9.81 0 
0 -9.81 0 
0 -9.81 0 
0 -9.81 0 
0 -9.81 0 
0 -9.81 0 
0 -9.81 0 
TENSORS cauchy_stress double
146.542 -313.091 0
-313.091 489.486 0
0 0 0

-2266.62 -275.295 0
-275.295 3195.11 0
0 0 0

-3235.49 -1974.51 0
-1974.51 313.748 0
0 0 0

-2881.35 -1672.95 0
-1672.95 779.417 0
0 0 0

905.043 345.025 0
345.025 1839.2 0
0 0 0

-347.23 2643.86 0
2643.86 1737.13 0
0 0 0

-7.1669 -2866.12 0
-2866.12 2173.31 0
0 0 0

-6187.41 316.156 0
316.156 1175.16 0
0 0 0

-3742.96 -2350.86 0
-2350.86 2401.22 0
0 0 0

-594.459 2308.57 0
2308.57 3349.84 0
0 0 0

-4040.82 -2208.98 0
-2208.98 3041.62 0
0 0 0

803.72 882.548 0
882.548 3608.59 0
0 0 0

1233.06 -597.116 0
-597.116 886.99 0
0 0 0

69.2424 657.911 0
657.911 265.471 0
0 0 0

-7235.25 1371.03 0
1371.03 1732.37 0
0 0 0

-184.371 917.292 0
917.292 -3055.45 0
0 0 0

5692.96 -159.257 0
-159.257 1836.37 0
0 0 0

-733.041 1037.38 0
1037.38 597.62 0
0 0 0

3508.64 1982.52 0
1982.52 -2725.37 0
0 0 0

-7977.87 131.359 0
131.359 -5496.93 0
0 0 0

1816.14 362.581 0
362.581 39.3446 0
0 0 0

-2623.89 -840.676 0
-840.676 1488.83 0
0 0 0

-448.969 -1901.32 0
-1901.32 -52.3483 0
0 0 0

-4146.82 -3289.19 0
-3289.19 1456.39 0
0 0 0

-4822.5 1043.92 0
1043.92 2494.41 0
0 0 0

-9020.25 -757.206 0
-757.206 -2273.1 0
0 0 0

-2938.77 1150.92 0
1150.92 3289.24 0
0 0 0

-5892.39 -3038.9 0
-3038.9 3419.19 0
0 0 0

-3196.66 2454.34 0
2454.34 821.465 0
0 0 0

-3338.91 2125.65 0
2125.65 2314.93 0
0 0 0

-13918.6 2908.58 0
2908.58 -3421.67 0
0 0 0

-4317.59 5150.3 0
5150.3 2162.87 0
0 0 0

5423.54 1112.18 0
1112.18 -10493.3 0
0 0 0

-5886.09 2541.26 0
2541.26 -4773.46 0
0 0 0

4930.06 1929.49 0
1929.49 -26954.8 0
0 0 0

4708.99 1519.87 0
1519.87 -2928.07 0
0 0 0

7244.53 2052.9 0
2052.9 316.54 0
0 0 0

-3482.06 -1928.62 0
-1928.62 -4335.93 0
0 0 0

2504.3 -347.991 0
-347.991 -5889.55 0
0 0 0

-7132.43 -2347.64 0
-2347.64 -13604.4 0
0 0 0

-5530.87 -880.8 0
-880.8 -1783.61 0
0 0 0

-8191.98 -5258.8 0
-5258.8 -1259.35 0
0 0 0

-1931.37 -790.603 0
-790.603 -2677.2 0
0 0 0

-1606.24 -7812.66 0
-7812.66 -5900.69 0
0 0 0

-13838.5 2514.21 0
2514.21 -766.413 0
0 0 0

-8212.59 871.808 0
871.808 -727.006 0
0 0 0

-11684.4 17.9358 0
17.9358 -1238.36 0
0 0 0

-25850.6 7922.43 0
7922.43 -9033.05 0
0 0 0

-5028.78 2950.83 0
2950.83 -37332.7 0
0 0 0

-2882.6 2470.46 0
2470.46 -8975.38 0
0 0 0

-3363.39 -1142.5 0
-1142.5 -48046.9 0
0 0 0

3376.46 -1986.69 0
-1986.69 -12801.4 0
0 0 0

-4302.48 956.829 0
956.829 -15906.2 0
0 0 0

688.525 -1118.55 0
-1118.55 -12151.7 0
0 0 0

2419.6 -637.254 0
-637.254 -10717.1 0
0 0 0

756.439 -1279.82 0
-1279.82 -8711.4 0
0 0 0

1735.9 1534.76 0
1534.76 -9833.38 0
0 0 0

6364.93 -4052.03 0
-4052.03 -559.725 0
0 0 0

-201.189 520.615 0
520.615 -8875.22 0
0 0 0

-7287.34 -2209.58 0
-2209.58 -8478.77 0
0 0 0

-7076.93 -5616.84 0
-5616.84 -4538.06 0
0 0 0

-12929 2939.62 0
2939.62 -4715.88 0
0 0 0

-30567 -8828 0
-8828 -16482.7 0
0 0 0

-82801.6 -583.026 0
-583.026 -26127.5 0
0 0 0

TENSORS velocity_gradient double
0.740458 -0.840803 0
-0.263114 -0.949923 0
0 0 0

1.2297 -2.18693 0
2.18519 -0.949 0
0 0 0

2.52942 -1.66631 0
2.89151 -1.31918 0
0 0 0

1.50504 -2.23036 0
2.53123 -1.08052 0
0 0 0

0.992319 -2.18917 0
2.99513 -0.697547 0
0 0 0

0.714986 0.469862 0
2.97352 -0.15892 0
0 0 0

1.11 -2.43913 0
2.80178 -0.286857 0
0 0 0

0.871518 -2.11617 0
3.17336 -0.313776 0
0 0 0

0.349187 0.363933 0
1.76918 -0.507679 0
0 0 0

0.124364 0.452377 0
1.25625 -0.12537 0
0 0 0

1.15369 0.0121362 0
3.73308 -1.36565 0
0 0 0

1.15122 -0.0212358 0
5.05444 -1.17114 0
0 0 0

0.576268 0.581513 0
3.08606 0.570396 0
0 0 0

0.816087 -0.492828 0
1.61576 -0.675904 0
0 0 0

1.01117 0.549158 0
3.96935 -0.463944 0
0 0 0

0.906722 0.50905 0
2.27615 -1.1141 0
0 0 0

2.98564 -2.87409 0
3.07665 -1.80932 0
0 0 0

1.68841 -3.3979 0
4.35294 -2.05448 0
0 0 0

4.57817 -4.48238 0
8.55724 -2.61857 0
0 0 0

2.45663 -5.25703 0
7.40444 -3.03949 0
0 0 0

0.859985 -2.46105 0
5.62621 -0.383593 0
0 0 0

1.36331 -2.29873 0
4.33407 -0.800321 0
0 0 0

0.843534 -3.31172 0
6.24985 -2.24552 0
0 0 0

1.11075 -1.82341 0
4.98246 -2.02056 0
0 0 0

1.4932 -0.214498 0
4.05988 -0.852463 0
0 0 0

1.23146 -0.291882 0
4.85123 -0.618494 0
0 0 0

1.76017 -1.07677 0
3.88782 -1.34596 0
0 0 0

2.02596 -0.698749 0
2.54826 -0.3979 0
0 0 0

1.04621 0.454414 0
4.53734 -1.99977 0
0 0 0

2.42333 0.678913 0
1.32469 -2.34716 0
0 0 0

1.33474 -0.296226 0
0.147076 -1.43725 0
0 0 0

2.25601 1.70697 0
0.484863 -1.86225 0
0 0 0

4.33521 -9.53476 0
7.97968 -8.3588 0
0 0 0

3.29164 -7.19353 0
7.85816 -4.09176 0
0 0 0

1.27142 -7.57862 0
2.3117 -6.37195 0
0 0 0

2.35861 -7.12768 0
3.66833 -3.49107 0
0 0 0

2.94687 -7.57701 0
5.84776 -4.16025 0
0 0 0

3.91183 -1.67632 0
5.08774 -3.13092 0
0 0 0

3.46433 -6.6206 0
5.00382 -2.87863 0
0 0 0

4.01853 -1.99478 0
5.42715 -4.14395 0
0 0 0

3.60311 -1.78525 0
4.10569 -3.47743 0
0 0 0

2.82878 -1.70454 0
2.65313 -1.91174 0
0 0 0

3.72474 -2.09479 0
4.49259 -4.46211 0
0 0 0

3.97877 -2.61181 0
2.59055 -3.74633 0
0 0 0

1.58183 -2.11922 0
0.66784 -2.57195 0
0 0 0

1.67992 2.7887 0
0.152341 -1.23768 0
0 0 0

4.50888 -3.03012 0
1.42659 -3.6394 0
0 0 0

4.17932 0.0356738 0
1.67648 -2.52113 0
0 0 0

1.10379 -6.44607 0
2.08912 -4.86821 0
0 0 0

2.13036 -5.89814 0
3.39266 -2.00605 0
0 0 0

0.92562 -7.71313 0
-0.688125 -4.7603 0
0 0 0

-0.347833 -5.53205 0
-0.785351 -1.37274 0
0 0 0

1.20893 -5.53224 0
1.90208 -1.48896 0
0 0 0

0.707194 -2.79173 0
0.805907 -3.60768 0
0 0 0

-0.152421 -5.0493 0
-0.130621 -0.449585 0
0 0 0

0.244552 -4.39393 0
0.693692 -0.633493 0
0 0 0

2.9617 -0.531565 0
0.768547 -4.97739 0
0 0 0

5.45024 -0.127728 0
0.653482 -4.7898 0
0 0 0

2.27828 2.47943 0
0.806417 -5.14423 0
0 0 0

5.71945 2.71741 0
3.42573 -5.37198 0
0 0 0

5.48517 -3.75921 0
1.17034 -3.14061 0
0 0 0

4.74294 -3.93146 0
1.85614 -2.98146 0
0 0 0

4.61877 -4.77646 0
4.17725 -2.27855 0
0 0 0

2.18631 -4.89401 0
6.61528 -2.19022 0
0 0 0

SCALARS active double 1
LOOKUP_TABLE default
1
1
1
1
1
1
1
1
1
1
1
1
1
1
1
1
1
1
1
1
1
1
1
1
1
1
1
1
1
1
1
1
1
1
1
1
1
1
1
1
1
1
1
1
1
1
1
1
1
1
1
1
1
1
1
1
1
1
1
1
1
1
1
1
SCALARS extent double 1
LOOKUP_TABLE default
0.0125
0.0125
0.0125
0.0125
0.0125
0.0125
0.0125
0.0125
0.0125
0.0125
0.0125
0.0125
0.0125
0.0125
0.0125
0.0125
0.0125
0.0125
0.0125
0.0125
0.0125
0.0125
0.0125
0.0125
0.0125
0.0125
0.0125
0.0125
0.0125
0.0125
0.0125
0.0125
0.0125
0.0125
0.0125
0.0125
0.0125
0.0125
0.0125
0.0125
0.0125
0.0125
0.0125
0.0125
0.0125
0.0125
0.0125
0.0125
0.0125
0.0125
0.0125
0.0125
0.0125
0.0125
0.0125
0.0125
0.0125
0.0125
0.0125
0.0125
0.0125
0.0125
0.0125
0.0125
SCALARS pressure double 1
LOOKUP_TABLE default
-318.014
-464.244
1460.87
1050.97
-1372.12
-694.951
-1083.07
2506.13
670.867
-1377.69
499.598
-2206.15
-1060.02
-167.357
2751.44
1619.91
-3764.67
67.7106
-391.636
6737.4
-927.74
567.53
250.659
1345.22
1164.05
5646.68
-175.239
1236.6
1187.6
511.99
8670.12
1077.36
2534.86
5329.78
11012.4
-890.456
-3780.53
3908.99
1692.63
10368.4
3657.24
4725.66
2304.28
3753.47
7302.45
4469.8
6461.36
17441.8
21180.7
5928.99
25705.1
4712.46
10104.3
5731.58
4148.77
3977.48
4048.74
-2902.6
4538.21
7883.06
5807.49
8822.46
23524.9
54464.5
SCALARS density double 1
LOOKUP_TABLE default
996.698
995.184
1015.31
1010.99
985.831
992.799
988.799
1026.41
1007
985.774
1005.21
977.317
989.036
998.261
1029.03
1016.99
961.604
1000.7
995.935
1072.58
990.398
1005.92
1002.61
1014.09
1012.18
1060.48
998.179
1012.94
1012.43
1005.34
1094.36
1011.27
1026.71
1056.99
1121.34
990.782
961.445
1041.49
1017.76
1113.86
1038.77
1050.37
1024.25
1039.81
1078.9
1047.58
1069.51
1198.89
1246.43
1063.6
1306.48
1050.23
1110.8
1061.42
1044.09
1042.23
1043.01
970.264
1048.33
1085.44
1062.26
1096.09
1277.19
1761.97
