# vtk DataFile Version 3.0
Frame: 51, Time: 0.867
ASCII
DATASET UNSTRUCTURED_GRID
POINTS 64 double
0.403072 0.351436 0 
0.425274 0.337377 0 
0.389236 0.32672 0 
0.413204 0.313123 0 
0.446968 0.323068 0 
0.469197 0.308559 0 
0.435643 0.300644 0 
0.4584 0.285182 0 
0.492092 0.29442 0 
0.513883 0.279364 0 
0.480061 0.27084 0 
0.502343 0.257136 0 
0.536272 0.266703 0 
0.559443 0.255125 0 
0.524686 0.244618 0 
0.54784 0.231462 0 
0.377933 0.305558 0 
0.401148 0.291263 0 
0.364899 0.284599 0 
0.389873 0.270105 0 
0.423095 0.277972 0 
0.444543 0.264295 0 
0.410368 0.256299 0 
0.432227 0.241905 0 
0.466436 0.249409 0 
0.487819 0.235968 0 
0.454693 0.227819 0 
0.475761 0.21332 0 
0.511329 0.22339 0 
0.534203 0.21026 0 
0.498555 0.201037 0 
0.521623 0.188078 0 
0.3555 0.263377 0 
0.377558 0.247778 0 
0.344412 0.242354 0 
0.36494 0.226343 0 
0.398932 0.234204 0 
0.420575 0.218537 0 
0.387179 0.211326 0 
0.40934 0.196813 0 
0.442926 0.203558 0 
0.46501 0.190242 0 
0.42978 0.182053 0 
0.452077 0.168786 0 
0.486716 0.177212 0 
0.50912 0.164846 0 
0.474086 0.154585 0 
0.495671 0.141708 0 
0.33158 0.221881 0 
0.352614 0.206237 0 
0.321151 0.202507 0 
0.342436 0.184226 0 
0.374907 0.191117 0 
0.396558 0.175435 0 
0.362385 0.169189 0 
0.381487 0.152884 0 
0.417723 0.161019 0 
0.439043 0.147226 0 
0.401917 0.13889 0 
0.42448 0.124159 0 
0.461921 0.131778 0 
0.483977 0.119117 0 
0.446251 0.109221 0 
0.471292 0.0972949 0 
CELLS 64 128
1 0
1 1
1 2
1 3
1 4
1 5
1 6
1 7
1 8
1 9
1 10
1 11
1 12
1 13
1 14
1 15
1 16
1 17
1 18
1 19
1 20
1 21
1 22
1 23
1 24
1 25
1 26
1 27
1 28
1 29
1 30
1 31
1 32
1 33
1 34
1 35
1 36
1 37
1 38
1 39
1 40
1 41
1 42
1 43
1 44
1 45
1 46
1 47
1 48
1 49
1 50
1 51
1 52
1 53
1 54
1 55
1 56
1 57
1 58
1 59
1 60
1 61
1 62
1 63
CELL_TYPES 64
1
1
1
1
1
1
1
1
1
1
1
1
1
1
1
1
1
1
1
1
1
1
1
1
1
1
1
1
1
1
1
1
1
1
1
1
1
1
1
1
1
1
1
1
1
1
1
1
1
1
1
1
1
1
1
1
1
1
1
1
1
1
1
1
POINT_DATA 64
VECTORS displacement double
-0.109428 -0.261064 0 
-0.0872264 -0.300123 0 
-0.148264 -0.28578 0 
-0.124296 -0.324377 0 
-0.0655321 -0.339432 0 
-0.0433027 -0.378941 0 
-0.101857 -0.361856 0 
-0.0791002 -0.402318 0 
-0.0204079 -0.41808 0 
0.00138334 -0.458136 0 
-0.0574389 -0.44166 0 
-0.0351574 -0.480364 0 
0.0237718 -0.495797 0 
0.0469433 -0.532375 0 
-0.0128136 -0.517882 0 
0.0103395 -0.556038 0 
-0.184567 -0.306942 0 
-0.161352 -0.346237 0 
-0.222601 -0.327901 0 
-0.197627 -0.367395 0 
-0.139405 -0.384528 0 
-0.117957 -0.423205 0 
-0.177132 -0.406201 0 
-0.155273 -0.445595 0 
-0.0960644 -0.463091 0 
-0.0746809 -0.501532 0 
-0.132807 -0.484681 0 
-0.111739 -0.52418 0 
-0.0511707 -0.53911 0 
-0.0282972 -0.57724 0 
-0.0889452 -0.561463 0 
-0.0658772 -0.599422 0 
-0.257 -0.349123 0 
-0.234942 -0.389722 0 
-0.293088 -0.370146 0 
-0.27256 -0.411157 0 
-0.213568 -0.428296 0 
-0.191925 -0.468963 0 
-0.250321 -0.451174 0 
-0.22816 -0.490687 0 
-0.169574 -0.508942 0 
-0.14749 -0.547258 0 
-0.20772 -0.530447 0 
-0.185423 -0.568714 0 
-0.125784 -0.585288 0 
-0.10338 -0.622654 0 
-0.163414 -0.607915 0 
-0.141829 -0.645792 0 
-0.33092 -0.390619 0 
-0.309886 -0.431263 0 
-0.366349 -0.409993 0 
-0.345064 -0.453274 0 
-0.287593 -0.471383 0 
-0.265942 -0.512065 0 
-0.325115 -0.493311 0 
-0.306013 -0.534616 0 
-0.244777 -0.551481 0 
-0.223457 -0.590274 0 
-0.285583 -0.57361 0 
-0.26302 -0.613341 0 
-0.200579 -0.630722 0 
-0.178523 -0.668383 0 
-0.241249 -0.653279 0 
-0.216208 -0.690205 0 
VECTORS velocity double
-0.573404 -0.116741 0 
-0.592029 0.208288 0 
-0.582426 -0.612706 0 
-0.356177 0.294472 0 
-0.601042 0.354953 0 
-0.585288 0.791678 0 
-0.163857 0.0916646 0 
-0.00652832 0.118617 0 
-0.731076 0.784859 0 
0.0354108 1.18906 0 
-0.284676 1.05918 0 
0.1239 0.794307 0 
-0.497981 1.67807 0 
-0.059336 1.96383 0 
0.0288233 0.830351 0 
0.261934 1.50586 0 
-0.476259 -0.415638 0 
0.0948162 -0.00306468 0 
-0.518652 -0.561462 0 
-0.261684 0.130276 0 
-0.336871 0.317625 0 
-0.0137521 0.107902 0 
-0.611269 -0.111599 0 
-0.345235 0.406758 0 
-0.184488 0.730852 0 
0.198558 0.939131 0 
-0.462147 0.788501 0 
0.0244728 0.786472 0 
0.177858 0.802619 0 
0.439651 1.37044 0 
0.0757384 1.01281 0 
0.300922 1.6195 0 
-0.320458 -0.856619 0 
0.0320167 0.0262869 0 
0.0678656 -0.552943 0 
0.0308853 -0.0296663 0 
-0.0953266 -0.824891 0 
0.121081 -0.17069 0 
-0.107967 -0.0731183 0 
-0.250366 0.243385 0 
0.34898 0.691471 0 
0.403941 0.817436 0 
-0.127338 0.199775 0 
0.406178 0.917638 0 
-0.0821326 0.438257 0 
0.602196 1.32917 0 
-0.0522185 0.921056 0 
0.331554 1.22101 0 
-0.710428 -0.651158 0 
-0.581904 -0.0848823 0 
-0.151175 -0.428662 0 
-0.14305 -0.869615 0 
0.0366922 0.0211947 0 
-0.0168371 0.164218 0 
0.16039 -0.591811 0 
0.0273031 -0.136818 0 
0.301199 0.298006 0 
0.459272 0.751525 0 
0.353552 0.318967 0 
0.676962 0.2408 0 
0.0548696 0.548283 0 
0.546807 1.32199 0 
0.644505 0.470857 0 
0.696283 0.976467 0 
SCALARS mass double 1
LOOKUP_TABLE default
0.625
0.625
0.625
0.625
0.625
0.625
0.625
0.625
0.625
0.625
0.625
0.625
0.625
0.625
0.625
0.625
0.625
0.625
0.625
0.625
0.625
0.625
0.625
0.625
0.625
0.625
0.625
0.625
0.625
0.625
0.625
0.625
0.625
0.625
0.625
0.625
0.625
0.625
0.625
0.625
0.625
0.625
0.625
0.625
0.625
0.625
0.625
0.625
0.625
0.625
0.625
0.625
0.625
0.625
0.625
0.625
0.625
0.625
0.625
0.625
0.625
0.625
0.625
0.625
SCALARS volume double 1
LOOKUP_TABLE default
0.000626283
0.000625764
0.000626354
0.000630871
0.000634121
0.000623496
0.000626994
0.000604051
0.000639669
0.000619579
0.000633726
0.000628665
0.000626204
0.000631417
0.000609024
0.000618662
0.000626675
0.000620677
0.000611677
0.000623107
0.000604605
0.00063744
0.000620465
0.00061534
0.000604847
0.000628807
0.00062582
0.000616909
0.000636375
0.000612183
0.000629793
0.000625389
0.000586065
0.000601368
0.000603741
0.000609089
0.00058838
0.000651601
0.000614699
0.000593443
0.000642343
0.00061874
0.000612496
0.000626361
0.000614256
0.000625926
0.000635376
0.000617231
0.000587834
0.000575599
0.000529414
0.000591291
0.000592089
0.000630543
0.000601
0.000639658
0.00060553
0.000639598
0.000617015
0.000638209
0.000650246
0.000620331
0.000632349
0.00062262
VECTORS momentum double
-0.358377 -0.072963 0 
-0.370018 0.13018 0 
-0.364016 -0.382941 0 
-0.222611 0.184045 0 
-0.375651 0.221846 0 
-0.365805 0.494799 0 
-0.102411 0.0572904 0 
-0.0040802 0.0741357 0 
-0.456923 0.490537 0 
0.0221318 0.74316 0 
-0.177922 0.661988 0 
0.0774374 0.496442 0 
-0.311238 1.04879 0 
-0.037085 1.2274 0 
0.0180145 0.518969 0 
0.163709 0.941166 0 
-0.297662 -0.259774 0 
0.0592601 -0.00191543 0 
-0.324157 -0.350914 0 
-0.163552 0.0814224 0 
-0.210544 0.198516 0 
-0.00859505 0.0674387 0 
-0.382043 -0.0697497 0 
-0.215772 0.254224 0 
-0.115305 0.456782 0 
0.124099 0.586957 0 
-0.288842 0.492813 0 
0.0152955 0.491545 0 
0.111162 0.501637 0 
0.274782 0.856526 0 
0.0473365 0.633007 0 
0.188076 1.01219 0 
-0.200286 -0.535387 0 
0.0200104 0.0164293 0 
0.042416 -0.345589 0 
0.0193033 -0.0185414 0 
-0.0595791 -0.515557 0 
0.0756757 -0.106681 0 
-0.0674793 -0.045699 0 
-0.156479 0.152116 0 
0.218113 0.432169 0 
0.252463 0.510898 0 
-0.0795859 0.12486 0 
0.253861 0.573524 0 
-0.0513329 0.27391 0 
0.376373 0.830731 0 
-0.0326365 0.57566 0 
0.207221 0.763129 0 
-0.444018 -0.406973 0 
-0.36369 -0.0530514 0 
-0.0944844 -0.267914 0 
-0.089406 -0.543509 0 
0.0229326 0.0132467 0 
-0.0105232 0.102636 0 
0.100244 -0.369882 0 
0.0170644 -0.0855111 0 
0.188249 0.186254 0 
0.287045 0.469703 0 
0.22097 0.199354 0 
0.423101 0.1505 0 
0.0342935 0.342677 0 
0.341754 0.826246 0 
0.402816 0.294286 0 
0.435177 0.610292 0 
VECTORS body_force double
0 -9.81 0 
0 -9.81 0 
0 -9.81 0 
0 -9.81 0 
0 -9.81 0 
0 -9.81 0 
0 -9.81 0 
0 -9.81 0 
0 -9.81 0 
0 -9.81 0 
0 -9.81 0 
0 -9.81 0 
0 -9.81 0 
0 -9.81 0 
0 -9.81 0 
0 -9.81 0 
0 -9.81 0 
0 -9.81 0 
0 -9.81 0 
0 -9.81 0 
0 -9.81 0 
0 -9.81 0 
0 -9.81 0 
0 -9.81 0 
0 -9.81 0 
0 -9.81 0 
0 -9.81 0 
0 -9.81 0 
0 -9.81 0 
0 -9.81 0 
0 -9.81 0 
0 -9.81 0 
0 -9.81 0 
0 -9.81 0 
0 -9.81 0 
0 -9.81 0 
0 -9.81 0 
0 -9.81 0 
0 -9.81 0 
0 -9.81 0 
0 -9.81 0 
0 -9.81 0 
0 -9.81 0 
0 -9.81 0 
0 -9.81 0 
0 -9.81 0 
0 -9.81 0 
0 -9.81 0 
0 -9.81 0 
0 -9.81 0 
0 -9.81 0 
0 -9.81 0 
0 -9.81 0 
0 -9.81 0 
0 -9.81 0 
0 -9.81 0 
0 -9.81 0 
0 -9.81 0 
0 -9.81 0 
0 -9.81 0 
0 -9.81 0 
0 -9.81 0 
0 -9.81 0 
0 -9.81 0 
TENSORS cauchy_stress double
685.472 1577.47 0
1577.47 -291.097 0
0 0 0

1989.86 -323.532 0
-323.532 -1755.07 0
0 0 0

610.503 -1268.96 0
-1268.96 -194.39 0
0 0 0

-279.63 -2273.72 0
-2273.72 2077.74 0
0 0 0

2028.99 -2463.02 0
-2463.02 757.181 0
0 0 0

729.264 -802.588 0
-802.588 -1192.48 0
0 0 0

-1596.24 -2678.87 0
-2678.87 2208.74 0
0 0 0

-4080.54 -3201.56 0
-3201.56 -2475.89 0
0 0 0

4509.27 -2063.86 0
-2063.86 -47.9782 0
0 0 0

74.0525 645.351 0
645.351 -1749.25 0
0 0 0

-703.979 -1745.77 0
-1745.77 3370.42 0
0 0 0

-935.991 -1141.57 0
-1141.57 2060.49 0
0 0 0

2719.86 1436.1 0
1436.1 -2349.63 0
0 0 0

721.426 121.174 0
121.174 1243.06 0
0 0 0

-1058.94 -1319.16 0
-1319.16 -3920.61 0
0 0 0

-1099.14 -490.077 0
-490.077 -861.055 0
0 0 0

2477.27 1033.93 0
1033.93 -1962.44 0
0 0 0

373.511 -3073.05 0
-3073.05 -1708.14 0
0 0 0

2266.36 -4811.58 0
-4811.58 -6409.94 0
0 0 0

-2167.17 -3304.25 0
-3304.25 1583.87 0
0 0 0

-4941.98 119.27 0
119.27 -1437.94 0
0 0 0

100.533 128.42 0
128.42 3689.69 0
0 0 0

-5401.68 -4508.55 0
-4508.55 4001.25 0
0 0 0

-4068.45 -1768.1 0
-1768.1 1073.05 0
0 0 0

-3964.44 -3156.07 0
-3156.07 -2338.59 0
0 0 0

411.123 -1600.1 0
-1600.1 756.637 0
0 0 0

-4480.55 -2313.91 0
-2313.91 4732.57 0
0 0 0

-2388.86 -1903.87 0
-1903.87 -116.921 0
0 0 0

3187.83 -361.555 0
-361.555 280.798 0
0 0 0

-2072.51 -1703.58 0
-1703.58 -1912.18 0
0 0 0

3393.16 321.461 0
321.461 -1923.95 0
0 0 0

245.045 -1294.85 0
-1294.85 -125.481 0
0 0 0

-4745.7 -3103.35 0
-3103.35 -7623.59 0
0 0 0

-7822.08 -4553.33 0
-4553.33 409.667 0
0 0 0

-1804.4 -4139.01 0
-4139.01 -4850.53 0
0 0 0

-1412.78 -2898.54 0
-2898.54 -3546.33 0
0 0 0

-8667.16 -1965.31 0
-1965.31 -2944.09 0
0 0 0

1292.03 -8147.71 0
-8147.71 6723.65 0
0 0 0

-1527.33 -3443.51 0
-3443.51 -1668.78 0
0 0 0

-9614.62 -406.371 0
-406.371 -348.976 0
0 0 0

-119.982 -1438.89 0
-1438.89 5383.71 0
0 0 0

-5236.37 -4195.06 0
-4195.06 3300.64 0
0 0 0

-2507.91 -2902.93 0
-2902.93 -1378.6 0
0 0 0

-973.032 -1829.85 0
-1829.85 1391.38 0
0 0 0

-5961.15 -1434.25 0
-1434.25 2626.65 0
0 0 0

360.022 625.816 0
625.816 -75.4149 0
0 0 0

3111.69 1393.99 0
1393.99 54.8311 0
0 0 0

-2346.22 859.523 0
859.523 -59.32 0
0 0 0

-5835.28 -4392.92 0
-4392.92 -5954.49 0
0 0 0

-9620.02 -4935.08 0
-4935.08 -6214.54 0
0 0 0

-19681.7 -16964.5 0
-16964.5 -12237.5 0
0 0 0

-12240.8 -5052.51 0
-5052.51 1578.59 0
0 0 0

-8860.89 -4172.75 0
-4172.75 -1541.86 0
0 0 0

-1044.1 -1899.77 0
-1899.77 2742.05 0
0 0 0

-8428.91 80.8912 0
80.8912 898.704 0
0 0 0

1922.26 724.886 0
724.886 2535.86 0
0 0 0

-5180.73 -613.755 0
-613.755 -905.307 0
0 0 0

1526.46 -2184.54 0
-2184.54 2913.64 0
0 0 0

1965.66 544.166 0
544.166 -4438.26 0
0 0 0

864.751 -1016.24 0
-1016.24 3157.19 0
0 0 0

6480.64 1557.83 0
1557.83 1134.53 0
0 0 0

-1963.66 -604.07 0
-604.07 521.523 0
0 0 0

2874.93 -456.969 0
-456.969 -626.828 0
0 0 0

-211.001 292.911 0
292.911 -522.728 0
0 0 0

TENSORS velocity_gradient double
-0.396709 -5.50125 0
6.88639 -0.0503774 0
0 0 0

-0.160035 -4.49245 0
8.24088 -1.10974 0
0 0 0

0.296969 -4.05836 0
7.29102 -0.7829 0
0 0 0

0.113388 -4.35476 0
8.1797 -1.14055 0
0 0 0

-0.450763 -4.68849 0
9.2643 -1.02204 0
0 0 0

-1.78375 -4.46574 0
11.5381 -0.644239 0
0 0 0

0.26274 -3.64446 0
8.29799 -1.05914 0
0 0 0

-0.20609 -3.69412 0
11.1538 -1.59518 0
0 0 0

-1.19367 -7.45285 0
11.281 -1.11096 0
0 0 0

0.979031 -7.6382 0
11.7494 -0.463594 0
0 0 0

1.41932 -6.09602 0
10.9444 -1.28575 0
0 0 0

0.8832 -7.85158 0
10.8533 -0.86163 0
0 0 0

0.377497 -6.60064 0
11.2556 0.388198 0
0 0 0

-0.653494 -5.34209 0
7.90292 0.725581 0
0 0 0

-0.0781575 -4.81045 0
10.2602 1.00119 0
0 0 0

0.11222 -5.69073 0
8.82179 2.39312 0
0 0 0

0.580645 -3.85384 0
8.07564 -0.340021 0
0 0 0

0.412917 -2.16655 0
8.35263 0.458971 0
0 0 0

0.323314 -2.85951 0
7.76975 -0.520633 0
0 0 0

-0.0140878 -2.28657 0
7.2401 0.378764 0
0 0 0

0.557855 -2.37241 0
9.23403 -0.412112 0
0 0 0

0.853879 -2.70811 0
9.992 -1.43034 0
0 0 0

0.846099 -2.20164 0
10.2917 0.214528 0
0 0 0

1.24019 -4.64107 0
10.8783 -3.53257 0
0 0 0

3.26969 -4.71506 0
10.4247 -2.34421 0
0 0 0

3.22667 -4.19536 0
9.58715 -1.4028 0
0 0 0

2.8495 -5.10648 0
9.30566 -3.69805 0
0 0 0

2.57007 -4.5478 0
7.96497 -2.27352 0
0 0 0

0.751386 -4.28139 0
8.9541 0.168178 0
0 0 0

1.27513 -5.17784 0
8.12946 1.57966 0
0 0 0

1.94276 -2.8618 0
7.4927 -1.237 0
0 0 0

1.98956 -1.9892 0
7.51453 -1.79886 0
0 0 0

-0.0111246 -3.11492 0
6.88745 -0.875461 0
0 0 0

-0.133542 -2.08593 0
6.72434 -1.14793 0
0 0 0

1.20384 0.209366 0
2.6943 -1.14685 0
0 0 0

1.20767 -0.920281 0
7.29433 -1.28416 0
0 0 0

1.02347 -3.28138 0
8.78601 -2.42574 0
0 0 0

2.10449 -4.206 0
11.6525 -3.14283 0
0 0 0

2.30688 -2.52272 0
7.80593 -2.02997 0
0 0 0

2.60234 -4.62041 0
12.0088 -2.81738 0
0 0 0

2.56905 -4.76065 0
12.0385 -3.2439 0
0 0 0

1.70288 -3.08279 0
7.23019 -1.33654 0
0 0 0

2.29548 -4.33436 0
11.4794 -1.96738 0
0 0 0

1.12014 -3.65757 0
8.73701 -1.25918 0
0 0 0

1.07098 -2.04737 0
7.43891 -1.67855 0
0 0 0

2.62734 -1.64484 0
7.41357 -1.85337 0
0 0 0

0.0486874 -3.16368 0
7.7731 -1.26127 0
0 0 0

0.266135 -5.16487 0
7.59106 -0.243099 0
0 0 0

1.53027 0.385489 0
1.13458 -1.8914 0
0 0 0

2.39715 -0.134531 0
5.82316 -1.03331 0
0 0 0

2.0425 0.647277 0
0.69652 1.03519 0
0 0 0

4.6052 -2.85538 0
5.75979 2.58836 0
0 0 0

3.29254 -4.66695 0
8.70133 -1.76415 0
0 0 0

3.26357 -4.99797 0
9.98169 -2.88608 0
0 0 0

3.69138 -4.43726 0
9.98219 -1.02653 0
0 0 0

3.9446 -5.7209 0
10.5115 -2.83777 0
0 0 0

1.73828 -4.65694 0
10.5876 -2.48369 0
0 0 0

1.21804 -5.46258 0
10.1481 -0.796897 0
0 0 0

1.95912 -7.89587 0
9.56961 -1.37001 0
0 0 0

-0.0500526 -6.71879 0
9.87946 -0.700966 0
0 0 0

-0.234801 -5.20515 0
7.81795 -0.429213 0
0 0 0

-0.267334 -5.14942 0
7.79338 -0.387121 0
0 0 0

-0.817262 -5.53227 0
9.41991 -0.499918 0
0 0 0

-0.253552 -4.43299 0
6.96791 -0.274002 0
0 0 0

SCALARS active double 1
LOOKUP_TABLE default
1
1
1
1
1
1
1
1
1
1
1
1
1
1
1
1
1
1
1
1
1
1
1
1
1
1
1
1
1
1
1
1
1
1
1
1
1
1
1
1
1
1
1
1
1
1
1
1
1
1
1
1
1
1
1
1
1
1
1
1
1
1
1
1
SCALARS extent double 1
LOOKUP_TABLE default
0.0125
0.0125
0.0125
0.0125
0.0125
0.0125
0.0125
0.0125
0.0125
0.0125
0.0125
0.0125
0.0125
0.0125
0.0125
0.0125
0.0125
0.0125
0.0125
0.0125
0.0125
0.0125
0.0125
0.0125
0.0125
0.0125
0.0125
0.0125
0.0125
0.0125
0.0125
0.0125
0.0125
0.0125
0.0125
0.0125
0.0125
0.0125
0.0125
0.0125
0.0125
0.0125
0.0125
0.0125
0.0125
0.0125
0.0125
0.0125
0.0125
0.0125
0.0125
0.0125
0.0125
0.0125
0.0125
0.0125
0.0125
0.0125
0.0125
0.0125
0.0125
0.0125
0.0125
0.0125
SCALARS pressure double 1
LOOKUP_TABLE default
-197.188
-117.393
-208.057
-899.055
-1393.09
231.607
-306.248
3278.21
-2230.64
837.599
-1333.22
-562.247
-185.113
-982.245
2489.78
980.098
-257.415
667.313
2071.79
291.647
3189.96
-1895.11
700.214
1497.7
3151.52
-583.88
-126.008
1252.89
-1734.31
1992.34
-734.609
-59.7819
6184.65
3706.21
3327.47
2479.56
5805.63
-4007.84
1598.05
4981.8
-2631.86
967.865
1943.25
-209.173
1667.25
-142.303
-1583.26
1202.77
5894.89
7917.28
15959.6
5331.12
5201.37
-848.976
3765.1
-2229.06
3043.02
-2220.05
1236.3
-2010.97
-3807.58
721.067
-1124.05
366.865
SCALARS density double 1
LOOKUP_TABLE default
997.951
998.78
997.839
990.693
985.616
1002.41
996.82
1034.68
977.068
1008.75
986.23
994.17
998.077
989.837
1026.23
1010.25
997.326
1006.96
1021.78
1003.04
1033.73
980.484
1007.31
1015.7
1033.32
993.946
998.69
1013.12
982.125
1020.94
992.389
999.378
1066.43
1039.3
1035.21
1026.12
1062.24
959.175
1016.76
1053.18
973
1010.12
1020.42
997.827
1017.49
998.521
983.669
1012.59
1063.23
1085.82
1180.55
1057.01
1055.58
991.21
1039.93
977.084
1032.15
977.176
1012.94
979.303
961.175
1007.53
988.378
1003.82
