# vtk DataFile Version 3.0
Frame: 9, Time: 0.167
ASCII
DATASET UNSTRUCTURED_GRID
POINTS 64 double
0.5125 0.473237 0 
0.5125 0.498237 0 
0.5375 0.473237 0 
0.5375 0.498237 0 
0.5125 0.523237 0 
0.5125 0.548237 0 
0.5375 0.523237 0 
0.5375 0.548237 0 
0.5125 0.573237 0 
0.5125 0.598237 0 
0.5375 0.573237 0 
0.5375 0.598237 0 
0.5125 0.623237 0 
0.5125 0.648237 0 
0.5375 0.623237 0 
0.5375 0.648237 0 
0.5625 0.473237 0 
0.5625 0.498237 0 
0.5875 0.473237 0 
0.5875 0.498237 0 
0.5625 0.523237 0 
0.5625 0.548237 0 
0.5875 0.523237 0 
0.5875 0.548237 0 
0.5625 0.573237 0 
0.5625 0.598237 0 
0.5875 0.573237 0 
0.5875 0.598237 0 
0.5625 0.623237 0 
0.5625 0.648237 0 
0.5875 0.623237 0 
0.5875 0.648237 0 
0.6125 0.473237 0 
0.6125 0.498237 0 
0.6375 0.473237 0 
0.6375 0.498237 0 
0.6125 0.523237 0 
0.6125 0.548237 0 
0.6375 0.523237 0 
0.6375 0.548237 0 
0.6125 0.573237 0 
0.6125 0.598237 0 
0.6375 0.573237 0 
0.6375 0.598237 0 
0.6125 0.623237 0 
0.6125 0.648237 0 
0.6375 0.623237 0 
0.6375 0.648237 0 
0.6625 0.473237 0 
0.6625 0.498237 0 
0.6875 0.473237 0 
0.6875 0.498237 0 
0.6625 0.523237 0 
0.6625 0.548237 0 
0.6875 0.523237 0 
0.6875 0.548237 0 
0.6625 0.573237 0 
0.6625 0.598237 0 
0.6875 0.573237 0 
0.6875 0.598237 0 
0.6625 0.623237 0 
0.6625 0.648237 0 
0.6875 0.623237 0 
0.6875 0.648237 0 
CELLS 64 128
1 0
1 1
1 2
1 3
1 4
1 5
1 6
1 7
1 8
1 9
1 10
1 11
1 12
1 13
1 14
1 15
1 16
1 17
1 18
1 19
1 20
1 21
1 22
1 23
1 24
1 25
1 26
1 27
1 28
1 29
1 30
1 31
1 32
1 33
1 34
1 35
1 36
1 37
1 38
1 39
1 40
1 41
1 42
1 43
1 44
1 45
1 46
1 47
1 48
1 49
1 50
1 51
1 52
1 53
1 54
1 55
1 56
1 57
1 58
1 59
1 60
1 61
1 62
1 63
CELL_TYPES 64
1
1
1
1
1
1
1
1
1
1
1
1
1
1
1
1
1
1
1
1
1
1
1
1
1
1
1
1
1
1
1
1
1
1
1
1
1
1
1
1
1
1
1
1
1
1
1
1
1
1
1
1
1
1
1
1
1
1
1
1
1
1
1
1
POINT_DATA 64
VECTORS displacement double
-1.16079e-16 -0.139263 0 
-2.79458e-17 -0.139263 0 
-9.01767e-17 -0.139263 0 
-2.67473e-17 -0.139263 0 
2.27065e-17 -0.139263 0 
2.27238e-17 -0.139263 0 
1.50868e-17 -0.139263 0 
2.7042e-17 -0.139263 0 
2.02015e-17 -0.139263 0 
7.8654e-17 -0.139263 0 
4.20304e-17 -0.139263 0 
8.86473e-17 -0.139263 0 
1.35885e-16 -0.139263 0 
1.59639e-16 -0.139263 0 
1.32815e-16 -0.139263 0 
1.59885e-16 -0.139263 0 
-7.0583e-17 -0.139263 0 
-2.59325e-17 -0.139263 0 
-5.72979e-17 -0.139263 0 
-2.55014e-17 -0.139263 0 
8.99237e-18 -0.139263 0 
2.99004e-17 -0.139263 0 
4.42319e-18 -0.139263 0 
3.1299e-17 -0.139263 0 
5.4932e-17 -0.139263 0 
9.30024e-17 -0.139263 0 
5.89064e-17 -0.139263 0 
9.17193e-17 -0.139263 0 
1.28881e-16 -0.139263 0 
1.58049e-16 -0.139263 0 
1.24084e-16 -0.139263 0 
1.54131e-16 -0.139263 0 
-4.39198e-17 -0.139263 0 
-2.46553e-17 -0.139263 0 
-3.04486e-17 -0.139263 0 
-2.33944e-17 -0.139263 0 
-4.72156e-19 -0.139263 0 
3.15151e-17 -0.139263 0 
-5.69368e-18 -0.139263 0 
3.05487e-17 -0.139263 0 
6.17881e-17 -0.139263 0 
8.92271e-17 -0.139263 0 
6.35771e-17 -0.139263 0 
8.55257e-17 -0.139263 0 
1.19191e-16 -0.139263 0 
1.5117e-16 -0.139263 0 
1.14201e-16 -0.139263 0 
1.49166e-16 -0.139263 0 
-1.12191e-17 -0.139263 0 
-2.16115e-17 -0.139263 0 
1.37688e-17 -0.139263 0 
-1.93067e-17 -0.139263 0 
-1.20719e-17 -0.139263 0 
3.20652e-17 -0.139263 0 
-1.96068e-17 -0.139263 0 
3.60649e-17 -0.139263 0 
7.56152e-17 -0.139263 0 
8.84848e-17 -0.139263 0 
9.79025e-17 -0.139263 0 
9.81046e-17 -0.139263 0 
1.09973e-16 -0.139263 0 
1.489e-16 -0.139263 0 
1.06506e-16 -0.139263 0 
1.50373e-16 -0.139263 0 
VECTORS velocity double
-1.79128e-14 -1.64808 0 
9.56214e-15 -1.64808 0 
-9.68462e-15 -1.64808 0 
2.10497e-15 -1.64808 0 
1.22961e-14 -1.64808 0 
6.53043e-16 -1.64808 0 
4.39165e-15 -1.64808 0 
1.11458e-15 -1.64808 0 
-5.77495e-15 -1.64808 0 
4.59401e-16 -1.64808 0 
-4.46586e-16 -1.64808 0 
2.07272e-16 -1.64808 0 
-3.05121e-15 -1.64808 0 
-1.79492e-15 -1.64808 0 
-1.94945e-15 -1.64808 0 
3.32663e-16 -1.64808 0 
-4.8086e-15 -1.64808 0 
-1.31679e-15 -1.64808 0 
-3.2847e-15 -1.64808 0 
-7.03146e-16 -1.64808 0 
4.54955e-16 -1.64808 0 
1.21313e-15 -1.64808 0 
4.85975e-16 -1.64808 0 
9.48699e-16 -1.64808 0 
1.94835e-15 -1.64808 0 
4.83801e-16 -1.64808 0 
1.40986e-15 -1.64808 0 
1.28899e-15 -1.64808 0 
-8.49563e-16 -1.64808 0 
1.35109e-15 -1.64808 0 
2.48446e-16 -1.64808 0 
1.26035e-15 -1.64808 0 
-1.32688e-15 -1.64808 0 
-5.79922e-17 -1.64808 0 
1.06486e-15 -1.64808 0 
6.18668e-16 -1.64808 0 
3.7341e-16 -1.64808 0 
6.91639e-16 -1.64808 0 
1.1726e-16 -1.64808 0 
4.41949e-16 -1.64808 0 
7.66547e-16 -1.64808 0 
1.74855e-15 -1.64808 0 
1.84256e-17 -1.64808 0 
1.86248e-15 -1.64808 0 
1.56492e-15 -1.64808 0 
1.56806e-15 -1.64808 0 
3.09986e-15 -1.64808 0 
2.27423e-15 -1.64808 0 
6.75326e-15 -1.64808 0 
-2.68225e-15 -1.64808 0 
1.57383e-14 -1.64808 0 
-9.96074e-15 -1.64808 0 
-4.17156e-15 -1.64808 0 
6.18781e-16 -1.64808 0 
-1.2493e-14 -1.64808 0 
1.22214e-15 -1.64808 0 
2.44858e-15 -1.64808 0 
1.6698e-15 -1.64808 0 
8.057e-15 -1.64808 0 
1.17048e-15 -1.64808 0 
4.09335e-15 -1.64808 0 
3.6392e-15 -1.64808 0 
4.54538e-15 -1.64808 0 
5.66297e-15 -1.64808 0 
SCALARS mass double 1
LOOKUP_TABLE default
0.625
0.625
0.625
0.625
0.625
0.625
0.625
0.625
0.625
0.625
0.625
0.625
0.625
0.625
0.625
0.625
0.625
0.625
0.625
0.625
0.625
0.625
0.625
0.625
0.625
0.625
0.625
0.625
0.625
0.625
0.625
0.625
0.625
0.625
0.625
0.625
0.625
0.625
0.625
0.625
0.625
0.625
0.625
0.625
0.625
0.625
0.625
0.625
0.625
0.625
0.625
0.625
0.625
0.625
0.625
0.625
0.625
0.625
0.625
0.625
0.625
0.625
0.625
0.625
SCALARS volume double 1
LOOKUP_TABLE default
0.000625
0.000625
0.000625
0.000625
0.000625
0.000625
0.000625
0.000625
0.000625
0.000625
0.000625
0.000625
0.000625
0.000625
0.000625
0.000625
0.000625
0.000625
0.000625
0.000625
0.000625
0.000625
0.000625
0.000625
0.000625
0.000625
0.000625
0.000625
0.000625
0.000625
0.000625
0.000625
0.000625
0.000625
0.000625
0.000625
0.000625
0.000625
0.000625
0.000625
0.000625
0.000625
0.000625
0.000625
0.000625
0.000625
0.000625
0.000625
0.000625
0.000625
0.000625
0.000625
0.000625
0.000625
0.000625
0.000625
0.000625
0.000625
0.000625
0.000625
0.000625
0.000625
0.000625
0.000625
VECTORS momentum double
-1.11955e-14 -1.03005 0 
5.97634e-15 -1.03005 0 
-6.05289e-15 -1.03005 0 
1.31561e-15 -1.03005 0 
7.68505e-15 -1.03005 0 
4.08152e-16 -1.03005 0 
2.74478e-15 -1.03005 0 
6.9661e-16 -1.03005 0 
-3.60935e-15 -1.03005 0 
2.87126e-16 -1.03005 0 
-2.79116e-16 -1.03005 0 
1.29545e-16 -1.03005 0 
-1.90701e-15 -1.03005 0 
-1.12183e-15 -1.03005 0 
-1.21841e-15 -1.03005 0 
2.07915e-16 -1.03005 0 
-3.00537e-15 -1.03005 0 
-8.22995e-16 -1.03005 0 
-2.05294e-15 -1.03005 0 
-4.39466e-16 -1.03005 0 
2.84347e-16 -1.03005 0 
7.58205e-16 -1.03005 0 
3.03735e-16 -1.03005 0 
5.92937e-16 -1.03005 0 
1.21772e-15 -1.03005 0 
3.02375e-16 -1.03005 0 
8.8116e-16 -1.03005 0 
8.05616e-16 -1.03005 0 
-5.30977e-16 -1.03005 0 
8.44429e-16 -1.03005 0 
1.55279e-16 -1.03005 0 
7.87716e-16 -1.03005 0 
-8.29302e-16 -1.03005 0 
-3.62451e-17 -1.03005 0 
6.65535e-16 -1.03005 0 
3.86668e-16 -1.03005 0 
2.33381e-16 -1.03005 0 
4.32274e-16 -1.03005 0 
7.32873e-17 -1.03005 0 
2.76218e-16 -1.03005 0 
4.79092e-16 -1.03005 0 
1.09284e-15 -1.03005 0 
1.1516e-17 -1.03005 0 
1.16405e-15 -1.03005 0 
9.78076e-16 -1.03005 0 
9.80038e-16 -1.03005 0 
1.93742e-15 -1.03005 0 
1.4214e-15 -1.03005 0 
4.22078e-15 -1.03005 0 
-1.67641e-15 -1.03005 0 
9.83645e-15 -1.03005 0 
-6.22546e-15 -1.03005 0 
-2.60722e-15 -1.03005 0 
3.86738e-16 -1.03005 0 
-7.80815e-15 -1.03005 0 
7.63836e-16 -1.03005 0 
1.53036e-15 -1.03005 0 
1.04362e-15 -1.03005 0 
5.03563e-15 -1.03005 0 
7.31552e-16 -1.03005 0 
2.55834e-15 -1.03005 0 
2.2745e-15 -1.03005 0 
2.84086e-15 -1.03005 0 
3.53935e-15 -1.03005 0 
VECTORS body_force double
0 -9.81 0 
0 -9.81 0 
0 -9.81 0 
0 -9.81 0 
0 -9.81 0 
0 -9.81 0 
0 -9.81 0 
0 -9.81 0 
0 -9.81 0 
0 -9.81 0 
0 -9.81 0 
0 -9.81 0 
0 -9.81 0 
0 -9.81 0 
0 -9.81 0 
0 -9.81 0 
0 -9.81 0 
0 -9.81 0 
0 -9.81 0 
0 -9.81 0 
0 -9.81 0 
0 -9.81 0 
0 -9.81 0 
0 -9.81 0 
0 -9.81 0 
0 -9.81 0 
0 -9.81 0 
0 -9.81 0 
0 -9.81 0 
0 -9.81 0 
0 -9.81 0 
0 -9.81 0 
0 -9.81 0 
0 -9.81 0 
0 -9.81 0 
0 -9.81 0 
0 -9.81 0 
0 -9.81 0 
0 -9.81 0 
0 -9.81 0 
0 -9.81 0 
0 -9.81 0 
0 -9.81 0 
0 -9.81 0 
0 -9.81 0 
0 -9.81 0 
0 -9.81 0 
0 -9.81 0 
0 -9.81 0 
0 -9.81 0 
0 -9.81 0 
0 -9.81 0 
0 -9.81 0 
0 -9.81 0 
0 -9.81 0 
0 -9.81 0 
0 -9.81 0 
0 -9.81 0 
0 -9.81 0 
0 -9.81 0 
0 -9.81 0 
0 -9.81 0 
0 -9.81 0 
0 -9.81 0 
TENSORS cauchy_stress double
3.01026e-11 5.50088e-11 0
5.50088e-11 -1.95427e-10 0
0 0 0

6.45829e-12 4.92195e-12 0
4.92195e-12 2.77699e-12 0
0 0 0

7.14161e-11 1.2325e-11 0
1.2325e-11 -9.90284e-11 0
0 0 0

7.50044e-11 -8.20325e-12 0
-8.20325e-12 1.62718e-10 0
0 0 0

-2.49225e-11 -1.24222e-11 0
-1.24222e-11 1.9998e-11 0
0 0 0

1.09611e-10 -4.35788e-11 0
-4.35788e-11 2.11469e-10 0
0 0 0

-1.31643e-12 -8.3468e-12 0
-8.3468e-12 7.50789e-11 0
0 0 0

8.74892e-11 -1.92455e-11 0
-1.92455e-11 1.59852e-10 0
0 0 0

2.43081e-11 -2.84177e-11 0
-2.84177e-11 -1.67167e-10 0
0 0 0

-1.51212e-10 5.45202e-11 0
5.45202e-11 -4.55323e-10 0
0 0 0

3.50499e-11 -7.0537e-12 0
-7.0537e-12 -1.42103e-10 0
0 0 0

-1.59119e-10 2.84053e-11 0
2.84053e-11 -4.73773e-10 0
0 0 0

-7.25277e-13 1.86557e-11 0
1.86557e-11 2.98002e-11 0
0 0 0

4.25521e-11 -2.29103e-11 0
-2.29103e-11 9.67666e-11 0
0 0 0

1.70846e-11 4.96993e-12 0
4.96993e-12 7.13565e-11 0
0 0 0

5.36763e-11 -1.02075e-11 0
-1.02075e-11 1.22723e-10 0
0 0 0

2.74485e-11 3.04851e-11 0
3.04851e-11 -7.22107e-11 0
0 0 0

7.59388e-11 6.93456e-12 0
6.93456e-12 1.72769e-10 0
0 0 0

6.80874e-12 1.34992e-11 0
1.34992e-11 -1.2037e-10 0
0 0 0

8.15209e-11 -1.4832e-12 0
-1.4832e-12 1.85794e-10 0
0 0 0

2.0924e-11 -4.84306e-12 0
-4.84306e-12 9.56861e-11 0
0 0 0

7.40866e-11 -1.8331e-11 0
-1.8331e-11 1.58524e-10 0
0 0 0

2.87443e-11 -4.27958e-12 0
-4.27958e-12 1.13933e-10 0
0 0 0

6.83829e-11 -1.04549e-11 0
-1.04549e-11 1.45215e-10 0
0 0 0

-6.17896e-11 1.3376e-12 0
1.3376e-12 -1.84939e-10 0
0 0 0

-2.24957e-10 1.75808e-11 0
1.75808e-11 -5.1174e-10 0
0 0 0

-4.18357e-11 2.05756e-12 0
2.05756e-12 -1.3838e-10 0
0 0 0

-2.26365e-10 6.92101e-12 0
6.92101e-12 -5.15025e-10 0
0 0 0

-8.95712e-12 4.00534e-12 0
4.00534e-12 2.8299e-11 0
0 0 0

1.83804e-11 -1.64109e-12 0
-1.64109e-12 8.30705e-11 0
0 0 0

-1.75415e-12 4.16182e-14 0
4.16182e-14 4.51059e-11 0
0 0 0

4.03516e-11 -2.52953e-12 0
-2.52953e-12 1.34337e-10 0
0 0 0

2.03442e-11 -1.76033e-11 0
-1.76033e-11 -9.06964e-11 0
0 0 0

8.8593e-11 -1.79102e-11 0
-1.79102e-11 1.93784e-10 0
0 0 0

1.48926e-11 -4.31246e-11 0
-4.31246e-11 -1.03417e-10 0
0 0 0

9.43576e-11 -1.92219e-11 0
-1.92219e-11 2.07235e-10 0
0 0 0

1.66184e-11 7.44686e-12 0
7.44686e-12 9.23303e-11 0
0 0 0

7.17313e-11 8.97271e-12 0
8.97271e-12 1.77285e-10 0
0 0 0

1.27801e-11 4.93217e-12 0
4.93217e-12 8.33743e-11 0
0 0 0

6.26937e-11 1.27086e-11 0
1.27086e-11 1.56198e-10 0
0 0 0

-3.88102e-11 3.75265e-12 0
3.75265e-12 -1.08906e-10 0
0 0 0

-2.21497e-10 9.89465e-13 0
9.89465e-13 -4.78863e-10 0
0 0 0

-8.14672e-11 3.97245e-13 0
3.97245e-13 -2.08439e-10 0
0 0 0

-2.33651e-10 -6.23995e-12 0
-6.23995e-12 -5.07222e-10 0
0 0 0

-3.62357e-12 1.90587e-12 0
1.90587e-12 4.27195e-11 0
0 0 0

2.0083e-11 1.85255e-12 0
1.85255e-12 6.74153e-11 0
0 0 0

-2.64719e-12 5.44918e-12 0
5.44918e-12 4.49977e-11 0
0 0 0

3.99725e-11 1.10077e-11 0
1.10077e-11 1.13824e-10 0
0 0 0

7.55329e-11 -8.60752e-12 0
-8.60752e-12 -8.00419e-11 0
0 0 0

7.30383e-11 6.66522e-12 0
6.66522e-12 1.46784e-10 0
0 0 0

1.66497e-11 -6.21248e-11 0
-6.21248e-11 -2.17436e-10 0
0 0 0

2.01832e-11 -1.18924e-11 0
-1.18924e-11 2.34549e-11 0
0 0 0

-8.95876e-12 2.89729e-12 0
2.89729e-12 5.63772e-11 0
0 0 0

8.83852e-11 1.73828e-11 0
1.73828e-11 1.6521e-10 0
0 0 0

-2.44636e-11 5.97927e-12 0
5.97927e-12 2.01992e-11 0
0 0 0

9.67423e-11 3.69147e-11 0
3.69147e-11 1.8471e-10 0
0 0 0

3.62157e-11 1.47212e-12 0
1.47212e-12 -1.44084e-10 0
0 0 0

-1.63314e-10 -3.0455e-11 0
-3.0455e-11 -4.79731e-10 0
0 0 0

1.87393e-11 1.89525e-11 0
1.89525e-11 -1.84862e-10 0
0 0 0

-1.61915e-10 -5.78527e-11 0
-5.78527e-11 -4.76466e-10 0
0 0 0

9.58699e-12 -2.31601e-12 0
-2.31601e-12 5.79263e-11 0
0 0 0

5.12298e-11 1.14744e-11 0
1.14744e-11 1.04429e-10 0
0 0 0

-3.9661e-13 -6.94452e-12 0
-6.94452e-12 3.46312e-11 0
0 0 0

5.38399e-11 2.27426e-11 0
2.27426e-11 1.1052e-10 0
0 0 0

TENSORS velocity_gradient double
9.78943e-15 2.26398e-13 0
-1.22569e-13 1.95399e-14 0
0 0 0

-4.84109e-14 1.31916e-13 0
-8.70415e-14 9.76996e-14 0
0 0 0

9.78943e-15 1.59602e-13 0
-1.06581e-13 3.55271e-14 0
0 0 0

-4.84109e-14 9.9503e-14 0
-7.90479e-14 1.62537e-13 0
0 0 0

-5.4073e-14 3.39019e-14 0
-5.32907e-14 -1.52767e-13 0
0 0 0

-4.53013e-14 -3.22125e-14 0
1.06581e-14 2.4869e-14 0
0 0 0

-5.4073e-14 3.71569e-14 0
-4.26326e-14 -4.26326e-14 0
0 0 0

-4.53013e-14 -6.89067e-15 0
4.44089e-15 3.28626e-14 0
0 0 0

-2.81064e-15 -1.00798e-13 0
-3.37508e-14 1.22569e-13 0
0 0 0

3.79412e-14 -4.13126e-14 0
-6.75016e-14 -2.0961e-13 0
0 0 0

-2.81064e-15 -5.25849e-14 0
-2.13163e-14 9.23706e-14 0
0 0 0

3.79412e-14 -2.29459e-14 0
-7.72715e-14 -2.1938e-13 0
0 0 0

3.30858e-14 2.03971e-14 0
-6.39488e-14 4.9738e-14 0
0 0 0

1.88423e-14 4.78315e-14 0
-7.86038e-14 2.19824e-13 0
0 0 0

3.30858e-14 7.80106e-15 0
-8.52651e-14 8.52651e-14 0
0 0 0

1.88423e-14 2.86456e-14 0
-8.26006e-14 2.01617e-13 0
0 0 0

5.4244e-14 1.03101e-13 0
-1.77636e-14 5.32907e-14 0
0 0 0

1.28231e-14 6.97635e-14 0
-1.68754e-14 1.39444e-13 0
0 0 0

5.4244e-14 5.68951e-14 0
-1.42109e-14 1.42109e-14 0
0 0 0

1.28231e-14 4.26977e-14 0
-2.84217e-14 1.98952e-13 0
0 0 0

6.49167e-16 3.51795e-14 0
-8.88178e-15 -3.73035e-14 0
0 0 0

-3.39365e-15 8.49949e-15 0
3.55271e-15 3.55271e-15 0
0 0 0

6.49167e-16 2.79696e-14 0
-1.42109e-14 -2.84217e-14 0
0 0 0

-3.39365e-15 1.3958e-14 0
4.44089e-15 6.12843e-14 0
0 0 0

1.19214e-14 -1.91779e-14 0
0 5.68434e-14 0
0 0 0

2.83325e-14 -8.84122e-15 0
3.55271e-14 -2.77112e-13 0
0 0 0

1.19214e-14 -5.7736e-16 0
1.42109e-14 7.10543e-14 0
0 0 0

2.83325e-14 1.00158e-15 0
2.39808e-14 -2.46025e-13 0
0 0 0

3.13614e-14 1.88186e-15 0
1.06581e-14 3.90799e-14 0
0 0 0

2.98532e-14 1.48998e-14 0
-2.04281e-14 1.92735e-13 0
0 0 0

3.13614e-14 2.63955e-15 0
0 2.84217e-14 0
0 0 0

2.98532e-14 6.59399e-15 0
-1.68754e-14 2.24709e-13 0
0 0 0

6.47255e-14 5.23e-15 0
-2.30926e-14 3.37508e-14 0
0 0 0

1.37312e-14 1.28628e-14 0
-8.88178e-16 1.55431e-13 0
0 0 0

6.47255e-14 -5.18943e-14 0
-2.13163e-14 3.55271e-14 0
0 0 0

1.37312e-14 -1.97414e-14 0
-2.4869e-14 1.3145e-13 0
0 0 0

2.04665e-16 2.07809e-14 0
-1.06581e-14 -2.4869e-14 0
0 0 0

-3.94741e-15 1.91342e-14 0
-2.62013e-14 2.22045e-15 0
0 0 0

2.04665e-16 1.36135e-14 0
-2.13163e-14 -3.55271e-14 0
0 0 0

-3.94741e-15 2.4028e-14 0
-4.35207e-14 1.33227e-14 0
0 0 0

1.03305e-14 1.74259e-14 0
-2.13163e-14 6.39488e-14 0
0 0 0

2.63641e-14 1.18812e-14 0
-3.73035e-14 -2.36255e-13 0
0 0 0

1.03305e-14 3.48319e-14 0
-2.84217e-14 5.68434e-14 0
0 0 0

2.63641e-14 2.37976e-14 0
-3.55271e-14 -2.34479e-13 0
0 0 0

3.40094e-14 6.12917e-15 0
-1.42109e-14 5.68434e-14 0
0 0 0

3.7255e-14 -4.00059e-16 0
3.55271e-15 1.74083e-13 0
0 0 0

3.40094e-14 1.23507e-14 0
-2.13163e-14 9.23706e-14 0
0 0 0

3.7255e-14 -6.08233e-15 0
-1.59872e-14 1.97176e-13 0
0 0 0

2.37861e-14 -1.18435e-13 0
7.81597e-14 7.10543e-15 0
0 0 0

-4.276e-14 -5.51984e-14 0
6.75016e-14 1.24345e-13 0
0 0 0

2.37861e-14 -1.94394e-13 0
9.23706e-14 -7.10543e-15 0
0 0 0

-4.276e-14 -9.35084e-14 0
7.63833e-14 1.04805e-13 0
0 0 0

-5.17783e-14 1.04026e-14 0
4.08562e-14 -3.01981e-14 0
0 0 0

-4.53149e-14 3.82834e-14 0
-4.88498e-15 2.35367e-14 0
0 0 0

-5.17783e-14 1.11481e-14 0
2.84217e-14 -8.52651e-14 0
0 0 0

-4.53149e-14 6.19003e-14 0
-1.68754e-14 2.57572e-14 0
0 0 0

-3.90321e-15 6.72065e-14 0
8.88178e-15 6.57252e-14 0
0 0 0

3.60271e-14 3.86015e-14 0
4.88498e-14 -2.49578e-13 0
0 0 0

-3.90321e-15 1.1455e-13 0
2.84217e-14 1.27898e-13 0
0 0 0

3.60271e-14 5.62929e-14 0
7.10543e-14 -1.84741e-13 0
0 0 0

3.06483e-14 8.92704e-15 0
5.86198e-14 5.86198e-14 0
0 0 0

1.69064e-14 -1.68038e-14 0
7.06102e-14 1.70086e-13 0
0 0 0

3.06483e-14 -4.14193e-15 0
4.9738e-14 4.9738e-14 0
0 0 0

1.69064e-14 -3.25646e-14 0
6.03961e-14 2.45137e-13 0
0 0 0

SCALARS active double 1
LOOKUP_TABLE default
1
1
1
1
1
1
1
1
1
1
1
1
1
1
1
1
1
1
1
1
1
1
1
1
1
1
1
1
1
1
1
1
1
1
1
1
1
1
1
1
1
1
1
1
1
1
1
1
1
1
1
1
1
1
1
1
1
1
1
1
1
1
1
1
SCALARS extent double 1
LOOKUP_TABLE default
0.0125
0.0125
0.0125
0.0125
0.0125
0.0125
0.0125
0.0125
0.0125
0.0125
0.0125
0.0125
0.0125
0.0125
0.0125
0.0125
0.0125
0.0125
0.0125
0.0125
0.0125
0.0125
0.0125
0.0125
0.0125
0.0125
0.0125
0.0125
0.0125
0.0125
0.0125
0.0125
0.0125
0.0125
0.0125
0.0125
0.0125
0.0125
0.0125
0.0125
0.0125
0.0125
0.0125
0.0125
0.0125
0.0125
0.0125
0.0125
0.0125
0.0125
0.0125
0.0125
0.0125
0.0125
0.0125
0.0125
0.0125
0.0125
0.0125
0.0125
0.0125
0.0125
0.0125
0.0125
SCALARS pressure double 1
LOOKUP_TABLE default
8.2662e-11
-4.61764e-12
1.38062e-11
-1.18861e-10
2.46229e-12
-1.6054e-10
-3.68812e-11
-1.2367e-10
7.14293e-11
3.03268e-10
5.35263e-11
3.16446e-10
-1.45374e-11
-6.96594e-11
-4.42206e-11
-8.81996e-11
2.23811e-11
-1.24354e-10
5.67807e-11
-1.33657e-10
-5.8305e-11
-1.16305e-10
-7.13388e-11
-1.06799e-10
1.23364e-10
3.68349e-10
9.01076e-11
3.70695e-10
-9.67093e-12
-5.07255e-11
-2.16759e-11
-8.73441e-11
3.51761e-11
-1.41188e-10
4.4262e-11
-1.50796e-10
-5.44743e-11
-1.24508e-10
-4.80772e-11
-1.09446e-10
7.3858e-11
3.5018e-10
1.44953e-10
3.70436e-10
-1.9548e-11
-4.37491e-11
-2.11753e-11
-7.68984e-11
2.25449e-12
-1.09911e-10
1.00393e-10
-2.1819e-11
-2.37092e-11
-1.26798e-10
2.13217e-12
-1.40726e-10
5.39343e-11
3.21523e-10
8.30616e-11
3.1919e-10
-3.37567e-11
-7.78296e-11
-1.71173e-11
-8.21797e-11
SCALARS density double 1
LOOKUP_TABLE default
1000
1000
1000
1000
1000
1000
1000
1000
1000
1000
1000
1000
1000
1000
1000
1000
1000
1000
1000
1000
1000
1000
1000
1000
1000
1000
1000
1000
1000
1000
1000
1000
1000
1000
1000
1000
1000
1000
1000
1000
1000
1000
1000
1000
1000
1000
1000
1000
1000
1000
1000
1000
1000
1000
1000
1000
1000
1000
1000
1000
1000
1000
1000
1000
