# vtk DataFile Version 3.0
Frame: 14, Time: 0.25
ASCII
DATASET UNSTRUCTURED_GRID
POINTS 64 double
0.5125 0.302249 0 
0.5125 0.327249 0 
0.5375 0.302249 0 
0.5375 0.327249 0 
0.5125 0.352249 0 
0.5125 0.377249 0 
0.5375 0.352249 0 
0.5375 0.377249 0 
0.5125 0.402249 0 
0.5125 0.427249 0 
0.5375 0.402249 0 
0.5375 0.427249 0 
0.5125 0.452249 0 
0.5125 0.477249 0 
0.5375 0.452249 0 
0.5375 0.477249 0 
0.5625 0.302249 0 
0.5625 0.327249 0 
0.5875 0.302249 0 
0.5875 0.327249 0 
0.5625 0.352249 0 
0.5625 0.377249 0 
0.5875 0.352249 0 
0.5875 0.377249 0 
0.5625 0.402249 0 
0.5625 0.427249 0 
0.5875 0.402249 0 
0.5875 0.427249 0 
0.5625 0.452249 0 
0.5625 0.477249 0 
0.5875 0.452249 0 
0.5875 0.477249 0 
0.6125 0.302249 0 
0.6125 0.327249 0 
0.6375 0.302249 0 
0.6375 0.327249 0 
0.6125 0.352249 0 
0.6125 0.377249 0 
0.6375 0.352249 0 
0.6375 0.377249 0 
0.6125 0.402249 0 
0.6125 0.427249 0 
0.6375 0.402249 0 
0.6375 0.427249 0 
0.6125 0.452249 0 
0.6125 0.477249 0 
0.6375 0.452249 0 
0.6375 0.477249 0 
0.6625 0.302249 0 
0.6625 0.327249 0 
0.6875 0.302249 0 
0.6875 0.327249 0 
0.6625 0.352249 0 
0.6625 0.377249 0 
0.6875 0.352249 0 
0.6875 0.377249 0 
0.6625 0.402249 0 
0.6625 0.427249 0 
0.6875 0.402249 0 
0.6875 0.427249 0 
0.6625 0.452249 0 
0.6625 0.477249 0 
0.6875 0.452249 0 
0.6875 0.477249 0 
CELLS 64 128
1 0
1 1
1 2
1 3
1 4
1 5
1 6
1 7
1 8
1 9
1 10
1 11
1 12
1 13
1 14
1 15
1 16
1 17
1 18
1 19
1 20
1 21
1 22
1 23
1 24
1 25
1 26
1 27
1 28
1 29
1 30
1 31
1 32
1 33
1 34
1 35
1 36
1 37
1 38
1 39
1 40
1 41
1 42
1 43
1 44
1 45
1 46
1 47
1 48
1 49
1 50
1 51
1 52
1 53
1 54
1 55
1 56
1 57
1 58
1 59
1 60
1 61
1 62
1 63
CELL_TYPES 64
1
1
1
1
1
1
1
1
1
1
1
1
1
1
1
1
1
1
1
1
1
1
1
1
1
1
1
1
1
1
1
1
1
1
1
1
1
1
1
1
1
1
1
1
1
1
1
1
1
1
1
1
1
1
1
1
1
1
1
1
1
1
1
1
POINT_DATA 64
VECTORS displacement double
-2.33174e-16 -0.310251 0 
-1.12612e-16 -0.310251 0 
-2.2561e-16 -0.310251 0 
-1.15747e-16 -0.310251 0 
-6.00491e-18 -0.310251 0 
6.82607e-17 -0.310251 0 
-1.30255e-17 -0.310251 0 
6.3138e-17 -0.310251 0 
1.27095e-16 -0.310251 0 
2.09799e-16 -0.310251 0 
1.28491e-16 -0.310251 0 
2.11117e-16 -0.310251 0 
3.07515e-16 -0.310251 0 
4.05527e-16 -0.310251 0 
3.05194e-16 -0.310251 0 
3.96954e-16 -0.310251 0 
-2.17915e-16 -0.310251 0 
-1.192e-16 -0.310251 0 
-2.10089e-16 -0.310251 0 
-1.22969e-16 -0.310251 0 
-2.2964e-17 -0.310251 0 
5.55509e-17 -0.310251 0 
-3.58205e-17 -0.310251 0 
4.54992e-17 -0.310251 0 
1.27622e-16 -0.310251 0 
2.10316e-16 -0.310251 0 
1.24489e-16 -0.310251 0 
2.07397e-16 -0.310251 0 
3.00128e-16 -0.310251 0 
3.87665e-16 -0.310251 0 
2.92316e-16 -0.310251 0 
3.77661e-16 -0.310251 0 
-2.0065e-16 -0.310251 0 
-1.26197e-16 -0.310251 0 
-1.89597e-16 -0.310251 0 
-1.28883e-16 -0.310251 0 
-4.93083e-17 -0.310251 0 
3.49978e-17 -0.310251 0 
-6.34274e-17 -0.310251 0 
2.40467e-17 -0.310251 0 
1.2099e-16 -0.310251 0 
2.03269e-16 -0.310251 0 
1.17125e-16 -0.310251 0 
1.97934e-16 -0.310251 0 
2.84934e-16 -0.310251 0 
3.67978e-16 -0.310251 0 
2.7798e-16 -0.310251 0 
3.58614e-16 -0.310251 0 
-1.78772e-16 -0.310251 0 
-1.30787e-16 -0.310251 0 
-1.68176e-16 -0.310251 0 
-1.3191e-16 -0.310251 0 
-7.42121e-17 -0.310251 0 
1.53026e-17 -0.310251 0 
-8.16626e-17 -0.310251 0 
8.7655e-18 -0.310251 0 
1.16661e-16 -0.310251 0 
1.97852e-16 -0.310251 0 
1.19599e-16 -0.310251 0 
2.03022e-16 -0.310251 0 
2.75415e-16 -0.310251 0 
3.5032e-16 -0.310251 0 
2.7724e-16 -0.310251 0 
3.43097e-16 -0.310251 0 
VECTORS velocity double
-1.59887e-14 -2.46231 0 
-6.74304e-15 -2.46231 0 
-1.60963e-14 -2.46231 0 
-5.08525e-15 -2.46231 0 
1.79752e-15 -2.46231 0 
2.15386e-15 -2.46231 0 
3.87352e-15 -2.46231 0 
3.12745e-15 -2.46231 0 
-2.86536e-15 -2.46231 0 
-8.87847e-16 -2.46231 0 
-4.3869e-16 -2.46231 0 
4.0644e-16 -2.46231 0 
-7.50609e-16 -2.46231 0 
-1.37243e-15 -2.46231 0 
1.54724e-15 -2.46231 0 
-9.17041e-17 -2.46231 0 
-1.31327e-14 -2.46231 0 
-3.26918e-15 -2.46231 0 
-7.0978e-15 -2.46231 0 
-1.29482e-15 -2.46231 0 
3.63237e-15 -2.46231 0 
2.45664e-15 -2.46231 0 
1.07407e-15 -2.46231 0 
1.41439e-16 -2.46231 0 
6.03686e-16 -2.46231 0 
1.28462e-15 -2.46231 0 
2.61771e-16 -2.46231 0 
1.74669e-15 -2.46231 0 
2.41496e-15 -2.46231 0 
1.67051e-15 -2.46231 0 
1.85253e-15 -2.46231 0 
3.91422e-15 -2.46231 0 
-8.86295e-16 -2.46231 0 
2.3604e-16 -2.46231 0 
5.50182e-15 -2.46231 0 
1.3234e-15 -2.46231 0 
-1.78842e-15 -2.46231 0 
-1.32267e-15 -2.46231 0 
-4.9551e-15 -2.46231 0 
-1.9357e-15 -2.46231 0 
6.3087e-16 -2.46231 0 
1.91921e-15 -2.46231 0 
1.71098e-15 -2.46231 0 
1.80218e-15 -2.46231 0 
1.31295e-15 -2.46231 0 
5.78459e-15 -2.46231 0 
7.9624e-16 -2.46231 0 
7.28163e-15 -2.46231 0 
8.24995e-15 -2.46231 0 
1.85535e-15 -2.46231 0 
7.35811e-15 -2.46231 0 
1.8319e-15 -2.46231 0 
-5.61101e-15 -2.46231 0 
-1.48287e-15 -2.46231 0 
-3.75613e-15 -2.46231 0 
3.57981e-17 -2.46231 0 
3.67382e-15 -2.46231 0 
2.6985e-15 -2.46231 0 
6.51938e-15 -2.46231 0 
4.60818e-15 -2.46231 0 
1.8766e-15 -2.46231 0 
8.95317e-15 -2.46231 0 
4.55403e-15 -2.46231 0 
1.07992e-14 -2.46231 0 
SCALARS mass double 1
LOOKUP_TABLE default
0.625
0.625
0.625
0.625
0.625
0.625
0.625
0.625
0.625
0.625
0.625
0.625
0.625
0.625
0.625
0.625
0.625
0.625
0.625
0.625
0.625
0.625
0.625
0.625
0.625
0.625
0.625
0.625
0.625
0.625
0.625
0.625
0.625
0.625
0.625
0.625
0.625
0.625
0.625
0.625
0.625
0.625
0.625
0.625
0.625
0.625
0.625
0.625
0.625
0.625
0.625
0.625
0.625
0.625
0.625
0.625
0.625
0.625
0.625
0.625
0.625
0.625
0.625
0.625
SCALARS volume double 1
LOOKUP_TABLE default
0.000625
0.000625
0.000625
0.000625
0.000625
0.000625
0.000625
0.000625
0.000625
0.000625
0.000625
0.000625
0.000625
0.000625
0.000625
0.000625
0.000625
0.000625
0.000625
0.000625
0.000625
0.000625
0.000625
0.000625
0.000625
0.000625
0.000625
0.000625
0.000625
0.000625
0.000625
0.000625
0.000625
0.000625
0.000625
0.000625
0.000625
0.000625
0.000625
0.000625
0.000625
0.000625
0.000625
0.000625
0.000625
0.000625
0.000625
0.000625
0.000625
0.000625
0.000625
0.000625
0.000625
0.000625
0.000625
0.000625
0.000625
0.000625
0.000625
0.000625
0.000625
0.000625
0.000625
0.000625
VECTORS momentum double
-9.99296e-15 -1.53894 0 
-4.2144e-15 -1.53894 0 
-1.00602e-14 -1.53894 0 
-3.17828e-15 -1.53894 0 
1.12345e-15 -1.53894 0 
1.34616e-15 -1.53894 0 
2.42095e-15 -1.53894 0 
1.95465e-15 -1.53894 0 
-1.79085e-15 -1.53894 0 
-5.54904e-16 -1.53894 0 
-2.74181e-16 -1.53894 0 
2.54025e-16 -1.53894 0 
-4.69131e-16 -1.53894 0 
-8.57766e-16 -1.53894 0 
9.67027e-16 -1.53894 0 
-5.73151e-17 -1.53894 0 
-8.20793e-15 -1.53894 0 
-2.04324e-15 -1.53894 0 
-4.43612e-15 -1.53894 0 
-8.09261e-16 -1.53894 0 
2.27023e-15 -1.53894 0 
1.5354e-15 -1.53894 0 
6.71296e-16 -1.53894 0 
8.83996e-17 -1.53894 0 
3.77304e-16 -1.53894 0 
8.02888e-16 -1.53894 0 
1.63607e-16 -1.53894 0 
1.09168e-15 -1.53894 0 
1.50935e-15 -1.53894 0 
1.04407e-15 -1.53894 0 
1.15783e-15 -1.53894 0 
2.44639e-15 -1.53894 0 
-5.53934e-16 -1.53894 0 
1.47525e-16 -1.53894 0 
3.43864e-15 -1.53894 0 
8.27122e-16 -1.53894 0 
-1.11776e-15 -1.53894 0 
-8.2667e-16 -1.53894 0 
-3.09694e-15 -1.53894 0 
-1.20981e-15 -1.53894 0 
3.94294e-16 -1.53894 0 
1.19951e-15 -1.53894 0 
1.06937e-15 -1.53894 0 
1.12636e-15 -1.53894 0 
8.20597e-16 -1.53894 0 
3.61537e-15 -1.53894 0 
4.9765e-16 -1.53894 0 
4.55102e-15 -1.53894 0 
5.15622e-15 -1.53894 0 
1.15959e-15 -1.53894 0 
4.59882e-15 -1.53894 0 
1.14494e-15 -1.53894 0 
-3.50688e-15 -1.53894 0 
-9.26795e-16 -1.53894 0 
-2.34758e-15 -1.53894 0 
2.23738e-17 -1.53894 0 
2.29614e-15 -1.53894 0 
1.68656e-15 -1.53894 0 
4.07461e-15 -1.53894 0 
2.88011e-15 -1.53894 0 
1.17288e-15 -1.53894 0 
5.59573e-15 -1.53894 0 
2.84627e-15 -1.53894 0 
6.7495e-15 -1.53894 0 
VECTORS body_force double
0 -9.81 0 
0 -9.81 0 
0 -9.81 0 
0 -9.81 0 
0 -9.81 0 
0 -9.81 0 
0 -9.81 0 
0 -9.81 0 
0 -9.81 0 
0 -9.81 0 
0 -9.81 0 
0 -9.81 0 
0 -9.81 0 
0 -9.81 0 
0 -9.81 0 
0 -9.81 0 
0 -9.81 0 
0 -9.81 0 
0 -9.81 0 
0 -9.81 0 
0 -9.81 0 
0 -9.81 0 
0 -9.81 0 
0 -9.81 0 
0 -9.81 0 
0 -9.81 0 
0 -9.81 0 
0 -9.81 0 
0 -9.81 0 
0 -9.81 0 
0 -9.81 0 
0 -9.81 0 
0 -9.81 0 
0 -9.81 0 
0 -9.81 0 
0 -9.81 0 
0 -9.81 0 
0 -9.81 0 
0 -9.81 0 
0 -9.81 0 
0 -9.81 0 
0 -9.81 0 
0 -9.81 0 
0 -9.81 0 
0 -9.81 0 
0 -9.81 0 
0 -9.81 0 
0 -9.81 0 
0 -9.81 0 
0 -9.81 0 
0 -9.81 0 
0 -9.81 0 
0 -9.81 0 
0 -9.81 0 
0 -9.81 0 
0 -9.81 0 
0 -9.81 0 
0 -9.81 0 
0 -9.81 0 
0 -9.81 0 
0 -9.81 0 
0 -9.81 0 
0 -9.81 0 
0 -9.81 0 
TENSORS cauchy_stress double
-2.51997e-11 -7.41479e-12 0
-7.41479e-12 -1.36385e-10 0
0 0 0

-3.00934e-11 3.50081e-12 0
3.50081e-12 -3.80632e-11 0
0 0 0

1.05926e-11 -2.9776e-11 0
-2.9776e-11 -5.28701e-11 0
0 0 0

7.70492e-12 2.70055e-12 0
2.70055e-12 5.01328e-11 0
0 0 0

-4.63948e-11 -2.19309e-11 0
-2.19309e-11 -3.62486e-11 0
0 0 0

6.24353e-12 -2.87967e-11 0
-2.87967e-11 6.71084e-11 0
0 0 0

-3.94933e-11 -2.00411e-11 0
-2.00411e-11 -2.0145e-11 0
0 0 0

1.06679e-11 -2.24565e-11 0
-2.24565e-11 7.74319e-11 0
0 0 0

1.70625e-11 -5.45671e-11 0
-5.45671e-11 2.54932e-11 0
0 0 0

1.01141e-11 -7.47177e-12 0
-7.47177e-12 1.0087e-11 0
0 0 0

3.25825e-11 -2.80149e-11 0
-2.80149e-11 6.17066e-11 0
0 0 0

-1.11509e-11 -1.00806e-11 0
-1.00806e-11 -3.95314e-11 0
0 0 0

-4.69972e-11 1.27942e-11 0
1.27942e-11 -8.58514e-11 0
0 0 0

4.08101e-12 -9.66096e-12 0
-9.66096e-12 9.74508e-11 0
0 0 0

-1.80296e-11 4.85136e-12 0
4.85136e-12 -1.82603e-11 0
0 0 0

-8.98386e-12 -1.74735e-11 0
-1.74735e-11 6.69661e-11 0
0 0 0

4.64154e-11 1.55207e-11 0
1.55207e-11 2.80421e-11 0
0 0 0

-5.70192e-12 9.04789e-12 0
9.04789e-12 2.53546e-11 0
0 0 0

4.79886e-12 2.53091e-12 0
2.53091e-12 -6.90632e-11 0
0 0 0

-1.20334e-11 7.47008e-14 0
7.47008e-14 1.05812e-11 0
0 0 0

-3.70035e-11 -1.06033e-11 0
-1.06033e-11 4.55201e-11 0
0 0 0

-1.65005e-11 -2.41722e-11 0
-2.41722e-11 6.45926e-11 0
0 0 0

-2.19518e-11 -9.70584e-12 0
-9.70584e-12 8.06406e-11 0
0 0 0

-1.56134e-11 -6.51156e-12 0
-6.51156e-12 6.66626e-11 0
0 0 0

8.44269e-12 -2.06153e-11 0
-2.06153e-11 5.18329e-11 0
0 0 0

-5.2217e-11 3.01685e-12 0
3.01685e-12 -9.18988e-11 0
0 0 0

2.60908e-11 -1.24721e-11 0
-1.24721e-11 9.30119e-11 0
0 0 0

-6.04364e-11 -1.47672e-11 0
-1.47672e-11 -1.11077e-10 0
0 0 0

-1.00891e-10 4.91847e-12 0
4.91847e-12 -1.55296e-10 0
0 0 0

-2.47152e-11 1.2058e-11 0
1.2058e-11 4.49342e-11 0
0 0 0

-4.47335e-11 4.64969e-12 0
4.64969e-12 -2.42621e-11 0
0 0 0

4.74364e-12 9.01086e-12 0
9.01086e-12 1.13671e-10 0
0 0 0

3.60711e-11 -1.78135e-11 0
-1.78135e-11 -2.92015e-11 0
0 0 0

-1.2892e-11 4.51531e-12 0
4.51531e-12 -2.52998e-12 0
0 0 0

4.14314e-11 -3.33086e-11 0
-3.33086e-11 -1.66942e-11 0
0 0 0

1.24019e-11 -1.68361e-11 0
-1.68361e-11 5.64891e-11 0
0 0 0

-4.55749e-11 1.16693e-11 0
1.16693e-11 3.84694e-11 0
0 0 0

-2.47258e-11 1.01585e-11 0
1.01585e-11 5.46258e-11 0
0 0 0

-5.80089e-11 9.18858e-12 0
9.18858e-12 9.45685e-12 0
0 0 0

-2.47418e-11 2.08357e-11 0
2.08357e-11 5.45884e-11 0
0 0 0

2.98315e-11 2.05984e-11 0
2.05984e-11 1.0925e-10 0
0 0 0

-3.38153e-11 1.34608e-11 0
1.34608e-11 -2.41793e-11 0
0 0 0

-2.47775e-11 2.88191e-11 0
2.88191e-11 -1.81709e-11 0
0 0 0

-6.31765e-11 1.09834e-11 0
1.09834e-11 -9.26886e-11 0
0 0 0

-4.97943e-11 -1.07792e-11 0
-1.07792e-11 -4.48648e-11 0
0 0 0

-1.43809e-11 -3.12026e-11 0
-3.12026e-11 6.24845e-11 0
0 0 0

-7.93768e-11 -1.65403e-11 0
-1.65403e-11 -1.13891e-10 0
0 0 0

-2.06339e-11 -2.77924e-11 0
-2.77924e-11 4.78942e-11 0
0 0 0

3.56307e-11 2.49939e-11 0
2.49939e-11 -2.55395e-11 0
0 0 0

3.13354e-12 1.04838e-11 0
1.04838e-11 1.88259e-11 0
0 0 0

2.46259e-11 1.03178e-12 0
1.03178e-12 -5.12175e-11 0
0 0 0

-3.73181e-11 -4.09152e-12 0
-4.09152e-12 -7.55612e-11 0
0 0 0

-4.70053e-11 6.57096e-12 0
6.57096e-12 -3.32642e-11 0
0 0 0

-1.74271e-11 1.40637e-11 0
1.40637e-11 2.63839e-11 0
0 0 0

-5.60858e-11 8.15879e-12 0
8.15879e-12 -5.4452e-11 0
0 0 0

6.06537e-12 2.18224e-11 0
2.18224e-11 8.11996e-11 0
0 0 0

3.69474e-11 1.17922e-11 0
1.17922e-11 5.60817e-11 0
0 0 0

-3.6901e-12 -5.79074e-12 0
-5.79074e-12 -6.16433e-11 0
0 0 0

1.61339e-11 3.55822e-11 0
3.55822e-11 7.51691e-12 0
0 0 0

6.50688e-12 -1.14525e-11 0
-1.14525e-11 -3.78504e-11 0
0 0 0

-2.87202e-11 4.09313e-12 0
4.09313e-12 -8.57275e-11 0
0 0 0

-1.83981e-11 2.42515e-11 0
2.42515e-11 3.11559e-11 0
0 0 0

-2.71681e-11 -4.73639e-12 0
-4.73639e-12 -8.2106e-11 0
0 0 0

-1.12916e-11 -9.41494e-13 0
-9.41494e-13 4.77378e-11 0
0 0 0

TENSORS velocity_gradient double
3.85631e-14 1.66247e-13 0
-2.94875e-13 -4.36984e-13 0
0 0 0

4.05728e-14 2.1234e-13 0
-2.0961e-13 -3.90799e-14 0
0 0 0

3.85631e-14 1.8375e-13 0
-2.80664e-13 -2.80664e-13 0
0 0 0

4.05728e-14 2.09186e-13 0
-1.91847e-13 -2.13163e-14 0
0 0 0

3.51543e-14 5.98999e-14 0
-1.66978e-13 -1.10134e-13 0
0 0 0

2.19919e-14 3.85002e-14 0
-1.13687e-13 -1.13687e-13 0
0 0 0

3.51543e-14 4.76908e-14 0
-1.63425e-13 7.10543e-15 0
0 0 0

2.19919e-14 2.502e-14 0
-4.26326e-14 4.26326e-14 0
0 0 0

1.34984e-14 -4.8884e-15 0
2.30926e-14 -6.21725e-14 0
0 0 0

2.20649e-14 -1.09793e-14 0
-1.42109e-14 -5.68434e-14 0
0 0 0

1.34984e-14 1.57805e-15 0
-7.10543e-15 -3.55271e-14 0
0 0 0

2.20649e-14 -1.71275e-15 0
-2.13163e-14 -3.55271e-14 0
0 0 0

3.03947e-14 -8.80428e-15 0
-2.30926e-14 -2.30926e-14 0
0 0 0

3.55197e-14 -8.49895e-15 0
-3.90799e-14 3.19744e-14 0
0 0 0

3.03947e-14 -3.28481e-15 0
-2.4869e-14 3.55271e-15 0
0 0 0

3.55197e-14 -3.50549e-15 0
-2.13163e-14 2.13163e-14 0
0 0 0

1.37853e-13 1.51052e-13 0
-3.55271e-15 -1.88294e-13 0
0 0 0

5.50558e-14 1.66226e-13 0
-4.61853e-14 -4.61853e-14 0
0 0 0

1.37853e-13 6.81517e-14 0
2.13163e-14 -2.91323e-13 0
0 0 0

5.50558e-14 8.34629e-14 0
-2.84217e-14 -2.84217e-14 0
0 0 0

-9.08575e-15 3.74483e-14 0
-7.63833e-14 5.15143e-14 0
0 0 0

-9.51899e-15 1.93704e-14 0
-8.52651e-14 4.26326e-14 0
0 0 0

-9.08575e-15 2.91726e-14 0
-4.9738e-14 2.13163e-14 0
0 0 0

-9.51899e-15 2.15513e-14 0
-8.52651e-14 2.84217e-14 0
0 0 0

-4.29214e-15 1.19936e-14 0
-9.59233e-14 3.55271e-15 0
0 0 0

1.13552e-14 1.0958e-14 0
-7.10543e-14 -2.84217e-14 0
0 0 0

-4.29214e-15 2.63582e-14 0
-8.17124e-14 1.77636e-14 0
0 0 0

1.13552e-14 2.70329e-14 0
-5.68434e-14 0 0
0 0 0

2.91276e-14 1.09073e-14 0
-5.32907e-14 3.55271e-15 0
0 0 0

5.27073e-14 1.09002e-14 0
-6.03961e-14 -3.55271e-15 0
0 0 0

2.91276e-14 3.37722e-14 0
-2.84217e-14 1.42109e-14 0
0 0 0

5.27073e-14 3.47182e-14 0
-2.13163e-14 7.10543e-15 0
0 0 0

1.24758e-13 -6.80667e-15 0
-2.4869e-14 -2.80664e-13 0
0 0 0

4.7618e-14 1.82423e-15 0
-3.55271e-15 -4.61853e-14 0
0 0 0

1.24758e-13 -7.38234e-14 0
-2.4869e-14 -2.52243e-13 0
0 0 0

4.7618e-14 -7.86896e-14 0
1.42109e-14 -1.42109e-14 0
0 0 0

-1.12787e-14 2.8012e-14 0
2.13163e-14 -7.10543e-15 0
0 0 0

3.7798e-15 3.16883e-14 0
2.13163e-14 4.9738e-14 0
0 0 0

-1.12787e-14 3.39666e-14 0
4.61853e-14 3.55271e-15 0
0 0 0

3.7798e-15 4.97814e-14 0
4.26326e-14 1.42109e-14 0
0 0 0

1.83411e-14 3.55234e-14 0
3.90799e-14 1.06581e-14 0
0 0 0

2.08197e-14 3.60618e-14 0
-4.26326e-14 -4.26326e-14 0
0 0 0

1.83411e-14 3.94894e-14 0
3.55271e-15 -8.17124e-14 0
0 0 0

2.08197e-14 3.80446e-14 0
-2.13163e-14 -1.06581e-13 0
0 0 0

2.58811e-14 5.23531e-14 0
-6.75016e-14 -1.06581e-14 0
0 0 0

4.14745e-14 5.46401e-14 0
-6.03961e-14 -3.55271e-15 0
0 0 0

2.58811e-14 6.665e-14 0
-6.03961e-14 -3.55271e-15 0
0 0 0

4.14745e-14 7.06657e-14 0
-2.13163e-14 -2.13163e-14 0
0 0 0

1.52076e-14 -1.04313e-13 0
8.88178e-14 -2.23821e-13 0
0 0 0

2.31073e-14 -1.14686e-13 0
9.59233e-14 1.06581e-14 0
0 0 0

1.52076e-14 -9.8276e-14 0
1.03029e-13 -2.38032e-13 0
0 0 0

2.31073e-14 -1.06166e-13 0
7.81597e-14 -6.39488e-14 0
0 0 0

2.90318e-14 3.60121e-14 0
6.39488e-14 -2.13163e-14 0
0 0 0

2.60749e-14 5.71673e-14 0
1.42109e-14 1.42109e-14 0
0 0 0

2.90318e-14 3.41485e-14 0
7.10543e-14 -4.26326e-14 0
0 0 0

2.60749e-14 5.38459e-14 0
2.84217e-14 2.84217e-14 0
0 0 0

2.5794e-14 4.58927e-14 0
-1.59872e-14 -8.70415e-14 0
0 0 0

3.59151e-14 4.431e-14 0
-2.84217e-14 -7.10543e-14 0
0 0 0

2.5794e-14 5.47334e-14 0
-3.19744e-14 -7.4607e-14 0
0 0 0

3.59151e-14 5.4858e-14 0
-4.26326e-14 -4.26326e-14 0
0 0 0

4.47055e-14 7.55573e-14 0
-5.32907e-15 -5.32907e-15 0
0 0 0

4.7483e-14 7.99438e-14 0
-3.19744e-14 2.4869e-14 0
0 0 0

4.47055e-14 7.9075e-14 0
1.06581e-14 3.90799e-14 0
0 0 0

4.7483e-14 8.24746e-14 0
-2.84217e-14 2.84217e-14 0
0 0 0

SCALARS active double 1
LOOKUP_TABLE default
1
1
1
1
1
1
1
1
1
1
1
1
1
1
1
1
1
1
1
1
1
1
1
1
1
1
1
1
1
1
1
1
1
1
1
1
1
1
1
1
1
1
1
1
1
1
1
1
1
1
1
1
1
1
1
1
1
1
1
1
1
1
1
1
SCALARS extent double 1
LOOKUP_TABLE default
0.0125
0.0125
0.0125
0.0125
0.0125
0.0125
0.0125
0.0125
0.0125
0.0125
0.0125
0.0125
0.0125
0.0125
0.0125
0.0125
0.0125
0.0125
0.0125
0.0125
0.0125
0.0125
0.0125
0.0125
0.0125
0.0125
0.0125
0.0125
0.0125
0.0125
0.0125
0.0125
0.0125
0.0125
0.0125
0.0125
0.0125
0.0125
0.0125
0.0125
0.0125
0.0125
0.0125
0.0125
0.0125
0.0125
0.0125
0.0125
0.0125
0.0125
0.0125
0.0125
0.0125
0.0125
0.0125
0.0125
0.0125
0.0125
0.0125
0.0125
0.0125
0.0125
0.0125
0.0125
SCALARS pressure double 1
LOOKUP_TABLE default
8.07926e-11
3.40783e-11
2.11388e-11
-2.89188e-11
4.13217e-11
-3.6676e-11
2.98191e-11
-4.40499e-11
-2.12778e-11
-1.01006e-11
-4.71446e-11
2.53411e-11
6.64243e-11
-5.07659e-11
1.8145e-11
-2.89911e-11
-3.72287e-11
-9.82634e-12
3.21322e-11
7.26115e-13
-4.2583e-12
-2.40461e-11
-2.93444e-11
-2.55246e-11
-3.01378e-11
7.20579e-11
-5.95514e-11
8.57569e-11
1.28093e-10
-1.01095e-11
3.44978e-11
-5.92075e-11
-3.4348e-12
7.71099e-12
-1.23686e-11
-3.44455e-11
3.55273e-12
-1.495e-11
2.4276e-11
-1.49233e-11
-6.95408e-11
2.89973e-11
2.14742e-11
7.79325e-11
4.73296e-11
-2.40518e-11
9.66337e-11
-1.36301e-11
-5.04559e-12
-1.09797e-11
1.32958e-11
5.64396e-11
4.01348e-11
-4.47843e-12
5.52689e-11
-4.36325e-11
-4.65145e-11
3.26667e-11
-1.18254e-11
1.56718e-11
5.72238e-11
-6.37894e-12
5.46371e-11
-1.82231e-11
SCALARS density double 1
LOOKUP_TABLE default
1000
1000
1000
1000
1000
1000
1000
1000
1000
1000
1000
1000
1000
1000
1000
1000
1000
1000
1000
1000
1000
1000
1000
1000
1000
1000
1000
1000
1000
1000
1000
1000
1000
1000
1000
1000
1000
1000
1000
1000
1000
1000
1000
1000
1000
1000
1000
1000
1000
1000
1000
1000
1000
1000
1000
1000
1000
1000
1000
1000
1000
1000
1000
1000
