# vtk DataFile Version 3.0
Frame: 28, Time: 0.484
ASCII
DATASET UNSTRUCTURED_GRID
POINTS 64 double
0.233168 0.119119 0 
0.234448 0.143629 0 
0.257217 0.117283 0 
0.258881 0.142135 0 
0.233797 0.168348 0 
0.236154 0.194231 0 
0.258809 0.166031 0 
0.260646 0.190686 0 
0.236643 0.219911 0 
0.237911 0.246023 0 
0.262003 0.216978 0 
0.262144 0.242503 0 
0.241792 0.272159 0 
0.242922 0.295946 0 
0.267135 0.268874 0 
0.268646 0.292604 0 
0.282863 0.116691 0 
0.283484 0.1417 0 
0.306804 0.113865 0 
0.306867 0.13831 0 
0.28304 0.165709 0 
0.284142 0.190333 0 
0.307411 0.162336 0 
0.308709 0.187152 0 
0.28584 0.216962 0 
0.285298 0.241137 0 
0.311913 0.213967 0 
0.312352 0.237103 0 
0.290571 0.265858 0 
0.293802 0.292034 0 
0.316789 0.262069 0 
0.318022 0.28789 0 
0.332415 0.110477 0 
0.330762 0.136002 0 
0.360034 0.111258 0 
0.35629 0.136331 0 
0.331703 0.160763 0 
0.332893 0.18558 0 
0.357691 0.161041 0 
0.358792 0.185821 0 
0.336662 0.211329 0 
0.338035 0.2347 0 
0.361951 0.210783 0 
0.363727 0.234222 0 
0.341823 0.261384 0 
0.342564 0.285821 0 
0.367126 0.259702 0 
0.367877 0.284408 0 
0.385038 0.11082 0 
0.379683 0.136581 0 
0.410257 0.110329 0 
0.404983 0.135419 0 
0.382501 0.160656 0 
0.383733 0.184713 0 
0.409153 0.157788 0 
0.409316 0.182675 0 
0.385921 0.208428 0 
0.389146 0.232736 0 
0.410708 0.207002 0 
0.415227 0.231586 0 
0.391499 0.258765 0 
0.392358 0.282724 0 
0.416337 0.258573 0 
0.419596 0.282176 0 
CELLS 64 128
1 0
1 1
1 2
1 3
1 4
1 5
1 6
1 7
1 8
1 9
1 10
1 11
1 12
1 13
1 14
1 15
1 16
1 17
1 18
1 19
1 20
1 21
1 22
1 23
1 24
1 25
1 26
1 27
1 28
1 29
1 30
1 31
1 32
1 33
1 34
1 35
1 36
1 37
1 38
1 39
1 40
1 41
1 42
1 43
1 44
1 45
1 46
1 47
1 48
1 49
1 50
1 51
1 52
1 53
1 54
1 55
1 56
1 57
1 58
1 59
1 60
1 61
1 62
1 63
CELL_TYPES 64
1
1
1
1
1
1
1
1
1
1
1
1
1
1
1
1
1
1
1
1
1
1
1
1
1
1
1
1
1
1
1
1
1
1
1
1
1
1
1
1
1
1
1
1
1
1
1
1
1
1
1
1
1
1
1
1
1
1
1
1
1
1
1
1
POINT_DATA 64
VECTORS displacement double
-0.179332 -0.293381 0 
-0.178052 -0.293871 0 
-0.180283 -0.295217 0 
-0.178619 -0.295365 0 
-0.178703 -0.294152 0 
-0.176346 -0.293269 0 
-0.178691 -0.296469 0 
-0.176854 -0.296814 0 
-0.175857 -0.292589 0 
-0.174589 -0.291477 0 
-0.175497 -0.295522 0 
-0.175356 -0.294997 0 
-0.170708 -0.290341 0 
-0.169578 -0.291554 0 
-0.170365 -0.293626 0 
-0.168854 -0.294896 0 
-0.179637 -0.295809 0 
-0.179016 -0.2958 0 
-0.180696 -0.298635 0 
-0.180633 -0.29919 0 
-0.17946 -0.296791 0 
-0.178358 -0.297167 0 
-0.180089 -0.300164 0 
-0.178791 -0.300348 0 
-0.17666 -0.295538 0 
-0.177202 -0.296363 0 
-0.175587 -0.298533 0 
-0.175148 -0.300397 0 
-0.171929 -0.296642 0 
-0.168698 -0.295466 0 
-0.170711 -0.300431 0 
-0.169478 -0.29961 0 
-0.180085 -0.302023 0 
-0.181738 -0.301498 0 
-0.177466 -0.301242 0 
-0.18121 -0.301169 0 
-0.180797 -0.301737 0 
-0.179607 -0.30192 0 
-0.179809 -0.301459 0 
-0.178708 -0.301679 0 
-0.175838 -0.301171 0 
-0.174465 -0.3028 0 
-0.175549 -0.301717 0 
-0.173773 -0.303278 0 
-0.170677 -0.301116 0 
-0.169936 -0.301679 0 
-0.170374 -0.302798 0 
-0.169623 -0.303092 0 
-0.177462 -0.30168 0 
-0.182817 -0.300919 0 
-0.177243 -0.302171 0 
-0.182517 -0.302081 0 
-0.179999 -0.301844 0 
-0.178767 -0.302787 0 
-0.178347 -0.304712 0 
-0.178184 -0.304825 0 
-0.176579 -0.304072 0 
-0.173354 -0.304764 0 
-0.176792 -0.305498 0 
-0.172273 -0.305914 0 
-0.171001 -0.303735 0 
-0.170142 -0.304776 0 
-0.171163 -0.303927 0 
-0.167904 -0.305324 0 
VECTORS velocity double
-1.0972 -0.259647 0 
-1.11363 -0.141983 0 
-0.940012 -0.205642 0 
-1.22207 -0.145159 0 
-1.26282 -0.67646 0 
-0.851551 0.0112093 0 
-1.15962 -0.346457 0 
-1.08551 0.040818 0 
-0.911166 -0.279726 0 
-1.36426 -0.739091 0 
-1.20294 -0.119122 0 
-1.17239 -0.18118 0 
-0.996061 -0.0869572 0 
-1.40049 -0.327869 0 
-0.95735 0.724411 0 
-1.42941 0.204927 0 
-0.750808 -0.489023 0 
-0.906149 -0.00934771 0 
-1.24371 -0.0269422 0 
-0.967805 0.195572 0 
-0.957595 -0.268529 0 
-1.01595 -0.119015 0 
-0.976246 -0.358538 0 
-1.1655 -0.165305 0 
-1.28666 -0.101099 0 
-1.42383 -0.075698 0 
-1.10188 -0.0152792 0 
-1.20999 -0.278963 0 
-1.29033 0.31458 0 
-1.01533 -0.460637 0 
-1.03063 0.374299 0 
-0.739354 -0.518951 0 
-0.610484 0.0833737 0 
-1.07626 -0.0249481 0 
-0.596012 0.00261497 0 
-1.05256 0.352013 0 
-1.17048 -0.400187 0 
-1.0931 0.200493 0 
-1.26312 -0.0261064 0 
-1.11029 0.719345 0 
-1.21126 0.0812514 0 
-0.940678 -0.29216 0 
-1.50817 0.427908 0 
-1.01502 -0.0423008 0 
-0.997715 0.204952 0 
-0.983411 0.0276637 0 
-0.858454 0.254181 0 
-1.2637 0.33593 0 
-0.752972 0.175369 0 
-0.891929 0.643374 0 
-0.922666 0.289646 0 
-0.629021 0.0713811 0 
-1.43803 -0.0596166 0 
-1.08215 0.128252 0 
-0.852306 -0.055314 0 
-1.01427 0.10226 0 
-1.34017 -0.141605 0 
-0.999815 -0.543728 0 
-1.17389 -0.512114 0 
-1.16732 -0.324872 0 
-0.911922 -0.0324199 0 
-1.1552 -0.563544 0 
-1.16315 0.155354 0 
-1.00327 -0.0947389 0 
SCALARS mass double 1
LOOKUP_TABLE default
0.625
0.625
0.625
0.625
0.625
0.625
0.625
0.625
0.625
0.625
0.625
0.625
0.625
0.625
0.625
0.625
0.625
0.625
0.625
0.625
0.625
0.625
0.625
0.625
0.625
0.625
0.625
0.625
0.625
0.625
0.625
0.625
0.625
0.625
0.625
0.625
0.625
0.625
0.625
0.625
0.625
0.625
0.625
0.625
0.625
0.625
0.625
0.625
0.625
0.625
0.625
0.625
0.625
0.625
0.625
0.625
0.625
0.625
0.625
0.625
0.625
0.625
0.625
0.625
SCALARS volume double 1
LOOKUP_TABLE default
0.000633951
0.000615735
0.000609537
0.000636677
0.000640286
0.000646425
0.000601392
0.000604496
0.000633372
0.000626537
0.000618173
0.000608333
0.000641505
0.000623074
0.000632165
0.000579929
0.000640838
0.000631146
0.000603347
0.000605962
0.000593422
0.000664166
0.000588752
0.000644102
0.000666632
0.000589289
0.000643323
0.000617254
0.000679597
0.000583102
0.000659007
0.000590425
0.000660859
0.000617673
0.000623925
0.000614074
0.000630225
0.000649738
0.000620869
0.000618516
0.000646853
0.000590248
0.000657293
0.000596759
0.000665417
0.000566058
0.000673555
0.000580662
0.000640072
0.000612182
0.000602678
0.00063172
0.000617233
0.000617208
0.000604109
0.000613889
0.000585664
0.000625469
0.000613059
0.000654635
0.000618337
0.000612137
0.000625132
0.000619328
VECTORS momentum double
-0.685747 -0.16228 0 
-0.696017 -0.0887394 0 
-0.587507 -0.128526 0 
-0.763792 -0.0907242 0 
-0.789263 -0.422787 0 
-0.532219 0.00700582 0 
-0.724762 -0.216536 0 
-0.678441 0.0255113 0 
-0.569479 -0.174829 0 
-0.852662 -0.461932 0 
-0.75184 -0.0744513 0 
-0.732745 -0.113237 0 
-0.622538 -0.0543482 0 
-0.875309 -0.204918 0 
-0.598344 0.452757 0 
-0.893383 0.128079 0 
-0.469255 -0.30564 0 
-0.566343 -0.00584232 0 
-0.777321 -0.0168389 0 
-0.604878 0.122233 0 
-0.598497 -0.16783 0 
-0.634971 -0.0743841 0 
-0.610154 -0.224086 0 
-0.728437 -0.103315 0 
-0.804164 -0.063187 0 
-0.889894 -0.0473113 0 
-0.688672 -0.00954948 0 
-0.756245 -0.174352 0 
-0.806454 0.196612 0 
-0.634579 -0.287898 0 
-0.644146 0.233937 0 
-0.462096 -0.324344 0 
-0.381552 0.0521086 0 
-0.672664 -0.0155925 0 
-0.372508 0.00163435 0 
-0.657853 0.220008 0 
-0.731551 -0.250117 0 
-0.68319 0.125308 0 
-0.789449 -0.0163165 0 
-0.693931 0.44959 0 
-0.75704 0.0507821 0 
-0.587924 -0.1826 0 
-0.942608 0.267442 0 
-0.634385 -0.026438 0 
-0.623572 0.128095 0 
-0.614632 0.0172898 0 
-0.536534 0.158863 0 
-0.789815 0.209956 0 
-0.470608 0.109605 0 
-0.557456 0.402109 0 
-0.576666 0.181029 0 
-0.393138 0.0446132 0 
-0.898768 -0.0372604 0 
-0.676347 0.0801576 0 
-0.532691 -0.0345712 0 
-0.633921 0.0639128 0 
-0.837606 -0.0885033 0 
-0.624884 -0.33983 0 
-0.733684 -0.320071 0 
-0.729576 -0.203045 0 
-0.569951 -0.0202624 0 
-0.722002 -0.352215 0 
-0.726968 0.0970961 0 
-0.627043 -0.0592118 0 
VECTORS body_force double
0 -9.81 0 
0 -9.81 0 
0 -9.81 0 
0 -9.81 0 
0 -9.81 0 
0 -9.81 0 
0 -9.81 0 
0 -9.81 0 
0 -9.81 0 
0 -9.81 0 
0 -9.81 0 
0 -9.81 0 
0 -9.81 0 
0 -9.81 0 
0 -9.81 0 
0 -9.81 0 
0 -9.81 0 
0 -9.81 0 
0 -9.81 0 
0 -9.81 0 
0 -9.81 0 
0 -9.81 0 
0 -9.81 0 
0 -9.81 0 
0 -9.81 0 
0 -9.81 0 
0 -9.81 0 
0 -9.81 0 
0 -9.81 0 
0 -9.81 0 
0 -9.81 0 
0 -9.81 0 
0 -9.81 0 
0 -9.81 0 
0 -9.81 0 
0 -9.81 0 
0 -9.81 0 
0 -9.81 0 
0 -9.81 0 
0 -9.81 0 
0 -9.81 0 
0 -9.81 0 
0 -9.81 0 
0 -9.81 0 
0 -9.81 0 
0 -9.81 0 
0 -9.81 0 
0 -9.81 0 
0 -9.81 0 
0 -9.81 0 
0 -9.81 0 
0 -9.81 0 
0 -9.81 0 
0 -9.81 0 
0 -9.81 0 
0 -9.81 0 
0 -9.81 0 
0 -9.81 0 
0 -9.81 0 
0 -9.81 0 
0 -9.81 0 
0 -9.81 0 
0 -9.81 0 
0 -9.81 0 
TENSORS cauchy_stress double
2367.79 -1322.91 0
-1322.91 366.805 0
0 0 0

-2257.68 -2781.56 0
-2781.56 -614.39 0
0 0 0

-2272.78 1230.57 0
1230.57 -2545.04 0
0 0 0

1811.76 -677.982 0
-677.982 1747.93 0
0 0 0

-268.28 1869.92 0
1869.92 4915.16 0
0 0 0

167.266 698.503 0
698.503 6314.5 0
0 0 0

-1332.92 -3299.3 0
-3299.3 -6071.72 0
0 0 0

-5659.79 -1543.59 0
-1543.59 -754.796 0
0 0 0

212.314 -1291.38 0
-1291.38 2346.5 0
0 0 0

-3425.1 2523.51 0
2523.51 3897.38 0
0 0 0

-4194.9 -1622.69 0
-1622.69 2082.79 0
0 0 0

-5075.71 3092.08 0
3092.08 -122.299 0
0 0 0

3418.17 -2104.98 0
-2104.98 1594.38 0
0 0 0

-557.511 -20.7997 0
-20.7997 -36.0765 0
0 0 0

-2967.05 1240.65 0
1240.65 5159.22 0
0 0 0

-1434.6 -3167.04 0
-3167.04 -12958.9 0
0 0 0

3953.73 1108.15 0
1108.15 858.738 0
0 0 0

-1851.37 1292.75 0
1292.75 3733.12 0
0 0 0

-2058.51 -3491.43 0
-3491.43 -4722.05 0
0 0 0

-4660.47 -1871.61 0
-1871.61 -1288.51 0
0 0 0

-3144.89 881.192 0
881.192 -6825.44 0
0 0 0

6302.75 3860.25 0
3860.25 5385.75 0
0 0 0

-4513.98 -5040.61 0
-5040.61 -6975.92 0
0 0 0

407.94 1126.87 0
1126.87 5381.67 0
0 0 0

6666.67 1023.81 0
1023.81 5734.58 0
0 0 0

-2646.42 -3195.06 0
-3195.06 -8668.03 0
0 0 0

1259.5 820.374 0
820.374 4297.43 0
0 0 0

4578.76 -4701.45 0
-4701.45 -6977.11 0
0 0 0

8115.91 1150.4 0
1150.4 7989.52 0
0 0 0

-5687.88 -5266.53 0
-5266.53 -7656.25 0
0 0 0

4392.25 2008.3 0
2008.3 5796.59 0
0 0 0

-7622.23 -3014.84 0
-3014.84 -3321.76 0
0 0 0

8452.37 802.772 0
802.772 2276.13 0
0 0 0

-2852.26 4479.76 0
4479.76 584.355 0
0 0 0

2759.77 -79.363 0
-79.363 -3090.95 0
0 0 0

-2908.4 1659.63 0
1659.63 -483.041 0
0 0 0

2792.41 595.01 0
595.01 -1191.45 0
0 0 0

5507.39 5441.13 0
5441.13 1957.58 0
0 0 0

831.153 -1869.39 0
-1869.39 -2106.53 0
0 0 0

-101.804 4072.77 0
4072.77 -1903.59 0
0 0 0

3157.4 5658.49 0
5658.49 3451.68 0
0 0 0

-2237.06 558.049 0
558.049 -8764.79 0
0 0 0

3321.46 3548.93 0
3548.93 6366.61 0
0 0 0

2705.31 -3559.29 0
-3559.29 -11597.2 0
0 0 0

1911.27 6773.69 0
6773.69 10139.2 0
0 0 0

-1450.64 -5163.9 0
-5163.9 -17598.3 0
0 0 0

5138.51 3773.81 0
3773.81 9249.66 0
0 0 0

-5818.68 -5752.23 0
-5752.23 -8331.95 0
0 0 0

3068.76 1493.92 0
1493.92 1513.85 0
0 0 0

-4969.12 1614.28 0
1614.28 984.104 0
0 0 0

-794.326 -977.468 0
-977.468 -6199.79 0
0 0 0

2110.63 -867.464 0
-867.464 -54.1215 0
0 0 0

1575.16 -946.581 0
-946.581 -3980.08 0
0 0 0

930.371 496.808 0
496.808 -3342.85 0
0 0 0

-2405.28 -662.047 0
-662.047 -4132.54 0
0 0 0

-2466.84 834.891 0
834.891 -982.595 0
0 0 0

-7671.31 3344.3 0
3344.3 -4829.65 0
0 0 0

1836.02 1547.53 0
1547.53 -1691.64 0
0 0 0

-1936.31 1637.39 0
1637.39 -1773.41 0
0 0 0

5429.18 -823.632 0
-823.632 3479.57 0
0 0 0

-2840.51 4373.66 0
4373.66 779.322 0
0 0 0

324.866 -2098.05 0
-2098.05 -4324.02 0
0 0 0

-3561.4 -2852.02 0
-2852.02 3602.14 0
0 0 0

2602.77 2241.78 0
2241.78 -4355.91 0
0 0 0

TENSORS velocity_gradient double
1.33239 -1.42873 0
2.2442 0.00860691 0
0 0 0

0.622109 -1.43614 0
1.36172 -0.0241084 0
0 0 0

1.33835 -1.73684 0
1.68647 -0.485865 0
0 0 0

1.78645 -1.70612 0
1.91702 -0.470062 0
0 0 0

-0.162077 1.32483 0
1.81815 1.27999 0
0 0 0

-0.986338 1.01248 0
2.77668 1.22298 0
0 0 0

0.945027 0.234064 0
1.66436 1.63827 0
0 0 0

-0.540207 0.123466 0
1.17361 1.60173 0
0 0 0

-0.639929 -3.08606 0
4.24574 -1.22331 0
0 0 0

-0.077732 -2.56329 0
5.85318 -0.350834 0
0 0 0

-0.386314 -2.21032 0
2.15021 0.440432 0
0 0 0

0.667338 -2.20217 0
3.87885 0.453801 0
0 0 0

-1.89726 -0.987364 0
6.72702 2.89487 0
0 0 0

-3.59869 -1.25557 0
6.89003 1.58013 0
0 0 0

2.47611 -0.182452 0
1.97147 0.753055 0
0 0 0

4.35801 -0.0626809 0
-1.04054 0.561359 0
0 0 0

1.3269 -1.27522 0
1.68058 -0.248362 0
0 0 0

1.77775 -1.26347 0
1.91254 -0.242315 0
0 0 0

2.66863 -1.88647 0
5.51649 -0.262479 0
0 0 0

-0.176079 -1.89911 0
4.99999 -0.264774 0
0 0 0

0.966837 -1.22673 0
1.67157 1.1556 0
0 0 0

-0.517258 -1.29508 0
1.18119 1.13301 0
0 0 0

-1.67584 -2.2896 0
4.71173 0.808909 0
0 0 0

-1.97836 -2.30617 0
4.62497 0.804156 0
0 0 0

-0.389078 -1.22549 0
2.14568 2.05616 0
0 0 0

0.60734 -1.24665 0
3.78041 2.02144 0
0 0 0

-0.954918 0.413614 0
3.32741 1.77028 0
0 0 0

0.992887 0.449785 0
1.25837 1.73186 0
0 0 0

2.23263 1.67321 0
2.36116 -2.21695 0
0 0 0

4.00142 1.86386 0
-0.653093 -2.51582 0
0 0 0

1.72834 1.80595 0
0.802074 -2.23019 0
0 0 0

0.967485 1.77108 0
2.30814 -2.16119 0
0 0 0

3.0795 -4.85621 0
5.5911 -0.801682 0
0 0 0

0.10651 -4.67839 0
5.0513 -0.769395 0
0 0 0

-0.62317 -5.96024 0
0.842633 -1.2669 0
0 0 0

1.32187 -6.23832 0
0.583655 -1.22987 0
0 0 0

-1.65526 -2.5865 0
4.71763 0.723761 0
0 0 0

-1.95783 -2.60183 0
4.63085 0.719364 0
0 0 0

2.17534 -2.9686 0
-0.665963 -0.22534 0
0 0 0

1.68989 -2.99156 0
-3.174 -0.343984 0
0 0 0

-1.18445 2.50346 0
3.57123 -0.449635 0
0 0 0

0.787362 2.61424 0
1.47669 -0.56731 0
0 0 0

0.972588 2.99437 0
-4.56913 -1.481 0
0 0 0

0.0143499 2.92475 0
-4.46368 -1.47334 0
0 0 0

1.74909 1.07108 0
0.761009 -0.775579 0
0 0 0

1.03001 1.05008 0
2.18437 -0.734011 0
0 0 0

-0.724537 0.684538 0
-4.04437 0.290237 0
0 0 0

-0.964993 0.677386 0
-3.15982 0.316545 0
0 0 0

-0.658833 -4.02207 0
0.847381 -1.52496 0
0 0 0

1.3402 -4.42841 0
0.581215 -1.47086 0
0 0 0

-0.377412 -1.54461 0
1.38909 -1.89938 0
0 0 0

2.70993 -2.18635 0
0.863262 -1.79372 0
0 0 0

2.18258 -3.45339 0
-0.628559 -2.72998 0
0 0 0

1.7101 -3.4791 0
-3.0696 -2.86283 0
0 0 0

4.19057 -4.29635 0
0.00421538 -5.1346 0
0 0 0

2.9015 -4.31022 0
-1.82632 -5.1543 0
0 0 0

1.06431 2.01698 0
-4.57923 -1.37344 0
0 0 0

0.0704696 1.88742 0
-4.46985 -1.35918 0
0 0 0

1.48186 0.612741 0
-2.33749 -0.0677094 0
0 0 0

-0.339939 0.278914 0
0.25497 0.407334 0
0 0 0

-0.716383 0.447105 0
-4.07437 1.16367 0
0 0 0

-0.949373 0.438835 0
-3.21728 1.1941 0
0 0 0

-1.45548 0.852917 0
1.83089 0.726318 0
0 0 0

-0.808782 0.941783 0
0.879409 0.59557 0
0 0 0

SCALARS active double 1
LOOKUP_TABLE default
1
1
1
1
1
1
1
1
1
1
1
1
1
1
1
1
1
1
1
1
1
1
1
1
1
1
1
1
1
1
1
1
1
1
1
1
1
1
1
1
1
1
1
1
1
1
1
1
1
1
1
1
1
1
1
1
1
1
1
1
1
1
1
1
SCALARS extent double 1
LOOKUP_TABLE default
0.0125
0.0125
0.0125
0.0125
0.0125
0.0125
0.0125
0.0125
0.0125
0.0125
0.0125
0.0125
0.0125
0.0125
0.0125
0.0125
0.0125
0.0125
0.0125
0.0125
0.0125
0.0125
0.0125
0.0125
0.0125
0.0125
0.0125
0.0125
0.0125
0.0125
0.0125
0.0125
0.0125
0.0125
0.0125
0.0125
0.0125
0.0125
0.0125
0.0125
0.0125
0.0125
0.0125
0.0125
0.0125
0.0125
0.0125
0.0125
0.0125
0.0125
0.0125
0.0125
0.0125
0.0125
0.0125
0.0125
0.0125
0.0125
0.0125
0.0125
0.0125
0.0125
0.0125
0.0125
SCALARS pressure double 1
LOOKUP_TABLE default
-1367.29
1436.03
2408.91
-1779.85
-2323.44
-3240.88
3702.32
3207.29
-1279.41
-236.137
1056.05
2599.01
-2506.28
296.794
-1096.08
7196.75
-2406.23
-940.872
3390.28
2974.49
4985.16
-5844.25
5744.95
-2894.8
-6200.62
5657.22
-2778.46
1199.18
-8052.71
6672.07
-5094.42
5472
-5364.25
1133.95
165.591
1695.72
-800.482
-3732.48
637.687
1002.7
-3304.54
5500.93
-4844.03
4445.92
-6025.24
9524.46
-7194.09
7075.32
-2291.3
1992.51
3497.06
-1028.26
1202.46
1206.24
3268.91
1724.72
6250.48
-72.1909
1854.86
-4454.37
1030.59
1999.58
-20.3703
876.571
SCALARS density double 1
LOOKUP_TABLE default
985.881
1015.05
1025.37
981.66
976.126
966.857
1039.26
1033.92
986.782
997.547
1011.04
1027.4
974.271
1003.09
988.665
1077.72
975.286
990.263
1035.89
1031.42
1053.21
941.03
1061.57
970.343
937.549
1060.6
971.517
1012.55
919.663
1071.85
948.397
1058.56
945.739
1011.86
1001.72
1017.79
991.71
961.926
1006.65
1010.48
966.217
1058.88
950.87
1047.32
939.26
1104.13
927.912
1076.36
976.452
1020.94
1037.04
989.363
1012.58
1012.62
1034.58
1018.1
1067.16
999.249
1019.48
954.731
1010.78
1021.01
999.788
1009.16
