# vtk DataFile Version 3.0
Frame: 32, Time: 0.55
ASCII
DATASET UNSTRUCTURED_GRID
POINTS 64 double
0.96767 0.334838 0 
0.964071 0.304483 0 
0.946359 0.333267 0 
0.940594 0.306064 0 
0.960338 0.277314 0 
0.954201 0.249841 0 
0.935409 0.2828 0 
0.92753 0.258941 0 
0.945083 0.226338 0 
0.933627 0.204579 0 
0.918609 0.236979 0 
0.909445 0.215005 0 
0.922791 0.180141 0 
0.911439 0.157164 0 
0.900037 0.191481 0 
0.887303 0.168728 0 
0.926056 0.338526 0 
0.918367 0.314527 0 
0.9069 0.347622 0 
0.895467 0.324335 0 
0.911731 0.292307 0 
0.903222 0.270579 0 
0.886981 0.303437 0 
0.878547 0.281261 0 
0.893877 0.248592 0 
0.885256 0.226536 0 
0.869859 0.25879 0 
0.860716 0.236264 0 
0.877096 0.202665 0 
0.864112 0.180622 0 
0.852471 0.213454 0 
0.84063 0.191729 0 
0.887076 0.359062 0 
0.872709 0.338526 0 
0.865813 0.371448 0 
0.851151 0.350983 0 
0.86396 0.316399 0 
0.854872 0.294026 0 
0.840399 0.328533 0 
0.831812 0.305788 0 
0.846711 0.271401 0 
0.838004 0.24781 0 
0.82384 0.282635 0 
0.816204 0.258691 0 
0.827425 0.225182 0 
0.816056 0.202761 0 
0.804016 0.236933 0 
0.791395 0.214918 0 
0.84213 0.382314 0 
0.829004 0.361782 0 
0.81911 0.396277 0 
0.805889 0.373413 0 
0.817793 0.338894 0 
0.808164 0.314903 0 
0.794931 0.348779 0 
0.784816 0.325197 0 
0.800223 0.290554 0 
0.791628 0.267312 0 
0.776681 0.302425 0 
0.767504 0.280354 0 
0.779996 0.245225 0 
0.76689 0.223432 0 
0.756825 0.258945 0 
0.744842 0.235962 0 
CELLS 64 128
1 0
1 1
1 2
1 3
1 4
1 5
1 6
1 7
1 8
1 9
1 10
1 11
1 12
1 13
1 14
1 15
1 16
1 17
1 18
1 19
1 20
1 21
1 22
1 23
1 24
1 25
1 26
1 27
1 28
1 29
1 30
1 31
1 32
1 33
1 34
1 35
1 36
1 37
1 38
1 39
1 40
1 41
1 42
1 43
1 44
1 45
1 46
1 47
1 48
1 49
1 50
1 51
1 52
1 53
1 54
1 55
1 56
1 57
1 58
1 59
1 60
1 61
1 62
1 63
CELL_TYPES 64
1
1
1
1
1
1
1
1
1
1
1
1
1
1
1
1
1
1
1
1
1
1
1
1
1
1
1
1
1
1
1
1
1
1
1
1
1
1
1
1
1
1
1
1
1
1
1
1
1
1
1
1
1
1
1
1
1
1
1
1
1
1
1
1
POINT_DATA 64
VECTORS displacement double
0.45517 -0.277662 0 
0.451571 -0.333017 0 
0.408859 -0.279233 0 
0.403094 -0.331436 0 
0.447838 -0.385186 0 
0.441701 -0.437659 0 
0.397909 -0.3797 0 
0.39003 -0.428559 0 
0.432583 -0.486162 0 
0.421127 -0.532921 0 
0.381109 -0.475521 0 
0.371945 -0.522495 0 
0.410291 -0.582359 0 
0.398939 -0.630336 0 
0.362537 -0.571019 0 
0.349803 -0.618772 0 
0.363556 -0.273974 0 
0.355867 -0.322973 0 
0.3194 -0.264878 0 
0.307967 -0.313165 0 
0.349231 -0.370193 0 
0.340722 -0.416921 0 
0.299481 -0.359063 0 
0.291047 -0.406239 0 
0.331377 -0.463908 0 
0.322756 -0.510964 0 
0.282359 -0.45371 0 
0.273216 -0.501236 0 
0.314596 -0.559835 0 
0.301612 -0.606878 0 
0.264971 -0.549046 0 
0.25313 -0.595771 0 
0.274576 -0.253438 0 
0.260209 -0.298974 0 
0.228313 -0.241052 0 
0.213651 -0.286517 0 
0.25146 -0.346101 0 
0.242372 -0.393474 0 
0.202899 -0.333967 0 
0.194312 -0.381712 0 
0.234211 -0.441099 0 
0.225504 -0.48969 0 
0.18634 -0.429865 0 
0.178704 -0.478809 0 
0.214925 -0.537318 0 
0.203556 -0.584739 0 
0.166516 -0.525567 0 
0.153895 -0.572582 0 
0.17963 -0.230186 0 
0.166504 -0.275718 0 
0.13161 -0.216223 0 
0.118389 -0.264087 0 
0.155293 -0.323606 0 
0.145664 -0.372597 0 
0.107431 -0.313721 0 
0.0973156 -0.362303 0 
0.137723 -0.421946 0 
0.129128 -0.470188 0 
0.0891812 -0.410075 0 
0.0800044 -0.457146 0 
0.117496 -0.517275 0 
0.10439 -0.564068 0 
0.0693247 -0.503555 0 
0.0573421 -0.551538 0 
VECTORS velocity double
-0.28658 -0.995567 0 
0.0281808 -1.25961 0 
-1.38507 -0.580563 0 
-1.10989 -0.683405 0 
0.0779062 -1.34136 0 
-0.280262 -1.51953 0 
-1.11073 -0.102647 0 
-1.60422 -0.124885 0 
-0.911143 -0.473121 0 
-1.85692 -0.220532 0 
-1.9818 0.692695 0 
-2.21113 0.832469 0 
-1.67135 -0.158017 0 
-2.33085 0.10637 0 
-1.89218 0.968397 0 
-1.70758 0.918954 0 
-0.870942 -1.18765 0 
-0.874857 -1.01033 0 
-0.40905 -0.4414 0 
-1.50212 -0.252828 0 
-0.510729 -0.0637857 0 
-0.771098 -0.327616 0 
-1.21695 -0.0569663 0 
-1.2545 -0.16325 0 
-1.28178 0.230336 0 
-1.22864 0.398548 0 
-1.80509 0.130411 0 
-1.4878 0.0146339 0 
-1.2502 0.0216076 0 
-1.38809 0.106128 0 
-1.1787 -0.137922 0 
-2.03925 0.480515 0 
-0.577099 -0.669537 0 
-1.36367 -0.0306324 0 
-1.13228 -0.788615 0 
-1.39664 -0.362054 0 
-1.06393 -0.3458 0 
-1.29761 -0.317026 0 
-0.747562 -0.362908 0 
-1.42298 -0.322586 0 
-1.56293 0.0288852 0 
-1.45385 0.382618 0 
-2.14915 -0.583084 0 
-2.07621 0.170851 0 
-1.41392 0.249095 0 
-1.22825 0.106252 0 
-1.865 0.338087 0 
-0.978948 -0.778043 0 
-1.00832 -0.953878 0 
-1.49897 -1.20586 0 
-0.974892 -0.699529 0 
-1.334 -0.529639 0 
-0.781529 -1.28227 0 
-1.4273 -0.930151 0 
-1.12317 -1.29796 0 
-1.90502 -0.787674 0 
-1.78514 -0.612587 0 
-2.05422 -0.698345 0 
-1.9399 -0.304029 0 
-2.20713 -0.739355 0 
-1.64661 -0.750182 0 
-1.50862 -1.01268 0 
-1.71471 -0.649816 0 
-1.82603 -0.814319 0 
SCALARS mass double 1
LOOKUP_TABLE default
0.625
0.625
0.625
0.625
0.625
0.625
0.625
0.625
0.625
0.625
0.625
0.625
0.625
0.625
0.625
0.625
0.625
0.625
0.625
0.625
0.625
0.625
0.625
0.625
0.625
0.625
0.625
0.625
0.625
0.625
0.625
0.625
0.625
0.625
0.625
0.625
0.625
0.625
0.625
0.625
0.625
0.625
0.625
0.625
0.625
0.625
0.625
0.625
0.625
0.625
0.625
0.625
0.625
0.625
0.625
0.625
0.625
0.625
0.625
0.625
0.625
0.625
0.625
0.625
SCALARS volume double 1
LOOKUP_TABLE default
0.000496399
0.000518495
0.00060149
0.00060101
0.000564956
0.000662046
0.000581984
0.000628451
0.00066294
0.000617871
0.000623986
0.000608658
0.000639938
0.000630135
0.00064004
0.000604233
0.000523491
0.000548827
0.000551948
0.000593927
0.000574175
0.000612679
0.000603677
0.000595414
0.000597585
0.000608974
0.000608431
0.000629816
0.000619433
0.000623105
0.000640308
0.000622478
0.000607911
0.000579302
0.000597551
0.000594115
0.00058949
0.000601142
0.000603028
0.000607798
0.000600893
0.000579074
0.000624889
0.000589532
0.000656881
0.000626327
0.000601133
0.00062256
0.000627468
0.000589416
0.000626599
0.000641322
0.000587176
0.000603732
0.000649247
0.000620364
0.000603067
0.000611245
0.00057424
0.000597578
0.000597742
0.000639977
0.000600382
0.000628838
VECTORS momentum double
-0.179112 -0.622229 0 
0.017613 -0.787254 0 
-0.86567 -0.362852 0 
-0.693683 -0.427128 0 
0.0486914 -0.838353 0 
-0.175164 -0.949704 0 
-0.694207 -0.0641546 0 
-1.00264 -0.0780533 0 
-0.569465 -0.295701 0 
-1.16058 -0.137833 0 
-1.23862 0.432934 0 
-1.38196 0.520293 0 
-1.0446 -0.0987608 0 
-1.45678 0.0664813 0 
-1.18261 0.605248 0 
-1.06724 0.574346 0 
-0.544339 -0.742283 0 
-0.546786 -0.631454 0 
-0.255656 -0.275875 0 
-0.938827 -0.158017 0 
-0.319206 -0.039866 0 
-0.481936 -0.20476 0 
-0.760597 -0.0356039 0 
-0.784064 -0.102031 0 
-0.801109 0.14396 0 
-0.767902 0.249092 0 
-1.12818 0.0815066 0 
-0.929875 0.0091462 0 
-0.781376 0.0135047 0 
-0.867556 0.0663303 0 
-0.736691 -0.086201 0 
-1.27453 0.300322 0 
-0.360687 -0.418461 0 
-0.852293 -0.0191453 0 
-0.707675 -0.492884 0 
-0.8729 -0.226284 0 
-0.664955 -0.216125 0 
-0.811007 -0.198141 0 
-0.467226 -0.226818 0 
-0.889364 -0.201616 0 
-0.976834 0.0180532 0 
-0.908656 0.239136 0 
-1.34322 -0.364428 0 
-1.29763 0.106782 0 
-0.883698 0.155684 0 
-0.767657 0.0664077 0 
-1.16562 0.211304 0 
-0.611842 -0.486277 0 
-0.630203 -0.596173 0 
-0.936856 -0.753665 0 
-0.609307 -0.437206 0 
-0.833751 -0.331024 0 
-0.488456 -0.801419 0 
-0.892062 -0.581345 0 
-0.701983 -0.811226 0 
-1.19064 -0.492296 0 
-1.11571 -0.382867 0 
-1.28389 -0.436466 0 
-1.21244 -0.190018 0 
-1.37946 -0.462097 0 
-1.02913 -0.468864 0 
-0.942884 -0.632926 0 
-1.0717 -0.406135 0 
-1.14127 -0.508949 0 
VECTORS body_force double
0 -9.81 0 
0 -9.81 0 
0 -9.81 0 
0 -9.81 0 
0 -9.81 0 
0 -9.81 0 
0 -9.81 0 
0 -9.81 0 
0 -9.81 0 
0 -9.81 0 
0 -9.81 0 
0 -9.81 0 
0 -9.81 0 
0 -9.81 0 
0 -9.81 0 
0 -9.81 0 
0 -9.81 0 
0 -9.81 0 
0 -9.81 0 
0 -9.81 0 
0 -9.81 0 
0 -9.81 0 
0 -9.81 0 
0 -9.81 0 
0 -9.81 0 
0 -9.81 0 
0 -9.81 0 
0 -9.81 0 
0 -9.81 0 
0 -9.81 0 
0 -9.81 0 
0 -9.81 0 
0 -9.81 0 
0 -9.81 0 
0 -9.81 0 
0 -9.81 0 
0 -9.81 0 
0 -9.81 0 
0 -9.81 0 
0 -9.81 0 
0 -9.81 0 
0 -9.81 0 
0 -9.81 0 
0 -9.81 0 
0 -9.81 0 
0 -9.81 0 
0 -9.81 0 
0 -9.81 0 
0 -9.81 0 
0 -9.81 0 
0 -9.81 0 
0 -9.81 0 
0 -9.81 0 
0 -9.81 0 
0 -9.81 0 
0 -9.81 0 
0 -9.81 0 
0 -9.81 0 
0 -9.81 0 
0 -9.81 0 
0 -9.81 0 
0 -9.81 0 
0 -9.81 0 
0 -9.81 0 
TENSORS cauchy_stress double
-43443 8956.16 0
8956.16 -859.334 0
0 0 0

-34627.9 8577.74 0
8577.74 -1299.21 0
0 0 0

-13131.3 4425.88 0
4425.88 5757.9 0
0 0 0

-5088.22 217.245 0
217.245 -2438.57 0
0 0 0

-17820.2 5978.85 0
5978.85 -1603.52 0
0 0 0

4117.32 1084.39 0
1084.39 6956.33 0
0 0 0

-7157.32 -6043.73 0
-6043.73 -6555.94 0
0 0 0

179.199 -5110.66 0
-5110.66 879.871 0
0 0 0

12498.2 613.595 0
613.595 -1164.89 0
0 0 0

2883.59 -1384.31 0
-1384.31 -5089.7 0
0 0 0

2608.55 -5998.93 0
-5998.93 -2920.69 0
0 0 0

-1100.83 -3671.49 0
-3671.49 -3994.53 0
0 0 0

1728.37 2017.63 0
2017.63 2813.83 0
0 0 0

1800 34.3434 0
34.3434 -226.551 0
0 0 0

2739.46 164.683 0
164.683 1833.38 0
0 0 0

-2435.39 -1829.14 0
-1829.14 -4063.17 0
0 0 0

-23538 887.607 0
887.607 -10545 0
0 0 0

-16510.3 -3595.26 0
-3595.26 -8483.75 0
0 0 0

-18690.7 5547.67 0
5547.67 -5212.91 0
0 0 0

-4584.48 -8214.52 0
-8214.52 -5222.23 0
0 0 0

-4106.1 -4387.85 0
-4387.85 -12204.8 0
0 0 0

2777.49 -5295.02 0
-5295.02 -6606.35 0
0 0 0

122.989 -1638.52 0
-1638.52 -6798.32 0
0 0 0

-3219.4 -6149.69 0
-6149.69 -6106.66 0
0 0 0

-1012.63 -914.169 0
-914.169 -7613.42 0
0 0 0

110.316 -1329.66 0
-1329.66 -5105.81 0
0 0 0

-2364.83 -5162.65 0
-5162.65 -2802 0
0 0 0

640.643 -3474.65 0
-3474.65 835.523 0
0 0 0

-2212.8 -279.165 0
-279.165 492.077 0
0 0 0

2236.65 -244.893 0
-244.893 -2820.74 0
0 0 0

4627.04 -5367.43 0
-5367.43 26.2515 0
0 0 0

2374.09 1599.02 0
1599.02 -3151.77 0
0 0 0

-4292.03 2002.95 0
2002.95 -1039.37 0
0 0 0

-8227.84 -2228.91 0
-2228.91 -6373.58 0
0 0 0

-2858.74 2802.28 0
2802.28 -5778.24 0
0 0 0

-4782.27 1653.33 0
1653.33 -4963.55 0
0 0 0

-10040.1 -7641.98 0
-7641.98 -1208.7 0
0 0 0

-8961.41 -6195.38 0
-6195.38 1476.8 0
0 0 0

-3926.9 -4597.84 0
-4597.84 -2955.41 0
0 0 0

527.745 -5528.47 0
-5528.47 -5894.97 0
0 0 0

-8826.5 -6875.05 0
-6875.05 1262.05 0
0 0 0

-8811.01 1373.1 0
1373.1 -5866.21 0
0 0 0

-339.844 1335.42 0
1335.42 305.777 0
0 0 0

-2139.4 -1114.16 0
-1114.16 -9095.75 0
0 0 0

8221.94 -2059.13 0
-2059.13 1345.6 0
0 0 0

4098.42 -1864.93 0
-1864.93 -3690.48 0
0 0 0

-2957.77 1194.91 0
1194.91 -4529.7 0
0 0 0

1207.68 384.995 0
384.995 -1960.07 0
0 0 0

4956.91 -2927.08 0
-2927.08 -4198.96 0
0 0 0

-3029.94 -240.203 0
-240.203 -8243.04 0
0 0 0

572.056 964.489 0
964.489 -80.7309 0
0 0 0

3680.61 2758.17 0
2758.17 1277.02 0
0 0 0

-8698.94 -100.256 0
-100.256 -3306.3 0
0 0 0

-4338.83 1382.48 0
1382.48 -2319.01 0
0 0 0

2676.74 2437.16 0
2437.16 4642.74 0
0 0 0

555.863 -1169.27 0
-1169.27 -1987.49 0
0 0 0

-5763.74 -2714.53 0
-2714.53 -1106.04 0
0 0 0

-2963.77 -2753.51 0
-2753.51 -1315.77 0
0 0 0

-4567.67 -2842.48 0
-2842.48 -11721.7 0
0 0 0

-3100.68 -3262.26 0
-3262.26 -5527.65 0
0 0 0

-416.451 2338.87 0
2338.87 -8159.17 0
0 0 0

3767.36 -213.904 0
-213.904 786.649 0
0 0 0

1593.1 -1757.44 0
-1757.44 -9321.07 0
0 0 0

347.205 216.679 0
216.679 830.019 0
0 0 0

TENSORS velocity_gradient double
15.8397 -2.35879 0
-9.93739 -0.0720406 0
0 0 0

13.6621 -2.19612 0
-13.5412 -0.516804 0
0 0 0

6.92647 -3.03132 0
-8.49108 -2.15616 0
0 0 0

6.95678 -2.66244 0
-8.78499 -2.491 0
0 0 0

15.5766 4.27941 0
-18.7193 -1.5621 0
0 0 0

18.115 8.66067 0
-22.1348 -6.10273 0
0 0 0

8.14574 5.78994 0
-10.343 -4.95707 0
0 0 0

8.69112 5.96378 0
-12.269 -5.57101 0
0 0 0

9.08694 13.614 0
-13.1928 -8.66857 0
0 0 0

0.885938 11.5389 0
-10.7533 -7.04117 0
0 0 0

6.58969 9.52413 0
-12.3635 -7.06518 0
0 0 0

2.62681 7.93245 0
-11.2561 -6.62039 0
0 0 0

-1.61356 6.06886 0
-9.68006 -1.50915 0
0 0 0

-3.45986 5.17003 0
-8.71324 -1.03848 0
0 0 0

-1.65476 4.30504 0
-5.0893 -0.636344 0
0 0 0

-4.5107 3.52762 0
4.00426 -0.425298 0
0 0 0

3.05044 -0.927081 0
-7.70696 -2.9699 0
0 0 0

5.95757 -0.00370117 0
-8.50924 -3.22473 0
0 0 0

3.81623 3.15385 0
-7.04273 -3.06745 0
0 0 0

5.00813 2.46145 0
0.34084 -4.01722 0
0 0 0

7.93442 6.32336 0
-9.59669 -6.84089 0
0 0 0

7.86983 6.42699 0
-9.54472 -7.45387 0
0 0 0

6.22948 3.61122 0
1.89165 -5.10505 0
0 0 0

5.33541 5.20279 0
1.27806 -8.33837 0
0 0 0

3.48921 5.73842 0
-0.79499 -6.57395 0
0 0 0

0.306285 4.3889 0
2.10148 -5.19623 0
0 0 0

3.75346 4.60655 0
0.739961 -8.54118 0
0 0 0

1.4806 1.45177 0
1.45121 -3.5698 0
0 0 0

-2.42996 3.28502 0
3.56959 -3.32347 0
0 0 0

-3.87855 2.29808 0
3.94382 -0.30775 0
0 0 0

-1.48163 0.348602 0
4.08733 -3.03077 0
0 0 0

-5.1467 1.81408 0
9.02555 -1.16626 0
0 0 0

3.8145 0.383294 0
3.26396 -3.04349 0
0 0 0

4.16509 3.97416 0
3.29667 -4.92451 0
0 0 0

4.25839 -0.369914 0
2.64674 -1.99616 0
0 0 0

3.69497 1.57253 0
4.28736 -2.86166 0
0 0 0

5.56919 4.51848 0
2.39919 -5.27243 0
0 0 0

6.19945 3.62656 0
1.59526 -8.74634 0
0 0 0

5.16797 6.03648 0
5.876 -6.16978 0
0 0 0

6.70115 6.59979 0
5.09581 -6.45643 0
0 0 0

5.7491 3.16707 0
4.28724 -8.82489 0
0 0 0

4.88075 -0.67601 0
7.15332 -4.22875 0
0 0 0

6.66573 2.46056 0
5.59585 -8.01529 0
0 0 0

6.01904 2.25838 0
6.60737 -7.69906 0
0 0 0

0.178334 -4.76502 0
8.49309 -1.47628 0
0 0 0

-4.41322 -4.58349 0
9.55047 -1.6786 0
0 0 0

2.76067 -9.93329 0
7.92657 -0.0709693 0
0 0 0

2.47205 -10.6001 0
11.5135 0.355892 0
0 0 0

0.725504 -0.350527 0
2.9303 -0.416831 0
0 0 0

2.61015 0.855428 0
5.1978 1.03411 0
0 0 0

-0.414064 1.53934 0
1.48036 1.62526 0
0 0 0

1.53224 2.98108 0
3.90092 3.59156 0
0 0 0

4.45871 7.55126 0
6.23692 -6.9406 0
0 0 0

6.07677 8.1815 0
5.41353 -7.26131 0
0 0 0

3.17713 6.57252 0
-3.33911 -2.92074 0
0 0 0

4.46066 9.63223 0
-4.64836 -5.81163 0
0 0 0

6.14833 1.58932 0
3.78192 -6.58493 0
0 0 0

1.49854 0.864139 0
6.77641 -5.31129 0
0 0 0

5.48739 7.18154 0
-1.46112 -3.95889 0
0 0 0

3.33345 -2.48054 0
3.49059 0.678117 0
0 0 0

-0.310443 -8.13887 0
11.0004 0.0118388 0
0 0 0

1.60115 -8.18525 0
11.4328 0.57984 0
0 0 0

0.371756 -3.97231 0
8.79417 3.34947 0
0 0 0

1.76281 -5.96797 0
-0.222869 0.533054 0
0 0 0

SCALARS active double 1
LOOKUP_TABLE default
1
1
1
1
1
1
1
1
1
1
1
1
1
1
1
1
1
1
1
1
1
1
1
1
1
1
1
1
1
1
1
1
1
1
1
1
1
1
1
1
1
1
1
1
1
1
1
1
1
1
1
1
1
1
1
1
1
1
1
1
1
1
1
1
SCALARS extent double 1
LOOKUP_TABLE default
0.0125
0.0125
0.0125
0.0125
0.0125
0.0125
0.0125
0.0125
0.0125
0.0125
0.0125
0.0125
0.0125
0.0125
0.0125
0.0125
0.0125
0.0125
0.0125
0.0125
0.0125
0.0125
0.0125
0.0125
0.0125
0.0125
0.0125
0.0125
0.0125
0.0125
0.0125
0.0125
0.0125
0.0125
0.0125
0.0125
0.0125
0.0125
0.0125
0.0125
0.0125
0.0125
0.0125
0.0125
0.0125
0.0125
0.0125
0.0125
0.0125
0.0125
0.0125
0.0125
0.0125
0.0125
0.0125
0.0125
0.0125
0.0125
0.0125
0.0125
0.0125
0.0125
0.0125
0.0125
SCALARS pressure double 1
LOOKUP_TABLE default
22151.2
17963.6
3686.68
3763.4
9711.86
-5536.82
6856.63
-529.535
-5666.68
1103.05
156.066
2547.68
-2271.1
-786.724
-2286.42
3249.28
17041.5
12497
11951.8
4903.35
8155.46
1914.43
3337.67
4663.03
4313.02
2497.75
2583.42
-738.083
860.359
292.043
-2326.64
388.838
2665.7
7300.71
4318.49
4872.91
5624.39
3742.3
3441.16
2683.61
3782.22
7338.61
17.0334
5617.57
-4783.77
-203.968
3743.73
376.196
-378.974
5636.49
-245.663
-2478.82
6002.62
3328.92
-3659.74
715.813
3434.89
2139.77
8144.68
4314.16
4287.81
-2277.01
3863.98
-588.612
SCALARS density double 1
LOOKUP_TABLE default
1259.07
1205.41
1039.09
1039.92
1106.28
944.044
1073.91
994.508
942.769
1011.54
1001.62
1026.85
976.657
991.851
976.502
1034.37
1193.91
1138.79
1132.35
1052.32
1088.52
1020.11
1035.32
1049.69
1045.88
1026.32
1027.23
992.353
1008.99
1003.04
976.093
1004.05
1028.11
1078.88
1045.94
1051.98
1060.24
1039.69
1036.44
1028.3
1040.12
1079.31
1000.18
1060.16
951.466
997.881
1039.7
1003.92
996.066
1060.37
997.448
974.55
1064.42
1035.23
962.654
1007.47
1036.37
1022.5
1088.4
1045.89
1045.6
976.597
1041
993.897
