# vtk DataFile Version 3.0
Frame: 42, Time: 0.717
ASCII
DATASET UNSTRUCTURED_GRID
POINTS 64 double
0.0479719 0.0946091 0 
0.0490043 0.118358 0 
0.0740321 0.0937771 0 
0.0741633 0.117454 0 
0.0472214 0.142392 0 
0.0485826 0.166776 0 
0.0736328 0.141209 0 
0.0743711 0.166007 0 
0.0468879 0.190314 0 
0.0457756 0.216118 0 
0.0732877 0.190917 0 
0.0710285 0.215995 0 
0.0480884 0.240477 0 
0.0461478 0.26393 0 
0.072949 0.241488 0 
0.0712774 0.26621 0 
0.100673 0.0939122 0 
0.0987677 0.117985 0 
0.125722 0.0921941 0 
0.123397 0.116754 0 
0.0980072 0.142374 0 
0.0968027 0.167069 0 
0.123842 0.141628 0 
0.121586 0.165858 0 
0.0957923 0.192629 0 
0.093854 0.217898 0 
0.120817 0.191596 0 
0.119785 0.216396 0 
0.0954507 0.243548 0 
0.0959519 0.271022 0 
0.120599 0.24245 0 
0.120509 0.268631 0 
0.150502 0.0897522 0 
0.146629 0.115754 0 
0.178125 0.0916784 0 
0.171653 0.116982 0 
0.147722 0.141113 0 
0.145245 0.165666 0 
0.172921 0.141761 0 
0.169796 0.166287 0 
0.145111 0.191104 0 
0.144808 0.215896 0 
0.169471 0.191561 0 
0.169317 0.215803 0 
0.144743 0.243336 0 
0.145017 0.268908 0 
0.168922 0.241877 0 
0.169882 0.268043 0 
0.204096 0.0916619 0 
0.195901 0.117829 0 
0.228287 0.0936944 0 
0.220479 0.118789 0 
0.197664 0.141867 0 
0.194847 0.165931 0 
0.223468 0.141693 0 
0.220599 0.166024 0 
0.194005 0.190563 0 
0.194552 0.215277 0 
0.219036 0.191592 0 
0.220174 0.216703 0 
0.192992 0.241139 0 
0.193682 0.265933 0 
0.21793 0.242763 0 
0.219548 0.267275 0 
CELLS 64 128
1 0
1 1
1 2
1 3
1 4
1 5
1 6
1 7
1 8
1 9
1 10
1 11
1 12
1 13
1 14
1 15
1 16
1 17
1 18
1 19
1 20
1 21
1 22
1 23
1 24
1 25
1 26
1 27
1 28
1 29
1 30
1 31
1 32
1 33
1 34
1 35
1 36
1 37
1 38
1 39
1 40
1 41
1 42
1 43
1 44
1 45
1 46
1 47
1 48
1 49
1 50
1 51
1 52
1 53
1 54
1 55
1 56
1 57
1 58
1 59
1 60
1 61
1 62
1 63
CELL_TYPES 64
1
1
1
1
1
1
1
1
1
1
1
1
1
1
1
1
1
1
1
1
1
1
1
1
1
1
1
1
1
1
1
1
1
1
1
1
1
1
1
1
1
1
1
1
1
1
1
1
1
1
1
1
1
1
1
1
1
1
1
1
1
1
1
1
POINT_DATA 64
VECTORS displacement double
-0.364528 -0.317891 0 
-0.363496 -0.319142 0 
-0.363468 -0.318723 0 
-0.363337 -0.320046 0 
-0.365279 -0.320108 0 
-0.363917 -0.320724 0 
-0.363867 -0.321291 0 
-0.363129 -0.321493 0 
-0.365612 -0.322186 0 
-0.366724 -0.321382 0 
-0.364212 -0.321583 0 
-0.366471 -0.321505 0 
-0.364412 -0.322023 0 
-0.366352 -0.32357 0 
-0.364551 -0.321012 0 
-0.366223 -0.32129 0 
-0.361827 -0.318588 0 
-0.363732 -0.319515 0 
-0.361778 -0.320306 0 
-0.364103 -0.320746 0 
-0.364493 -0.320126 0 
-0.365697 -0.320431 0 
-0.363658 -0.320872 0 
-0.365914 -0.321642 0 
-0.366708 -0.319871 0 
-0.368646 -0.319602 0 
-0.366683 -0.320904 0 
-0.367715 -0.321104 0 
-0.367049 -0.318952 0 
-0.366548 -0.316478 0 
-0.366901 -0.32005 0 
-0.366991 -0.318869 0 
-0.361998 -0.322748 0 
-0.365871 -0.321746 0 
-0.359375 -0.320822 0 
-0.365847 -0.320518 0 
-0.364778 -0.321387 0 
-0.367255 -0.321834 0 
-0.364579 -0.320739 0 
-0.367704 -0.321213 0 
-0.367389 -0.321396 0 
-0.367692 -0.321604 0 
-0.368029 -0.320939 0 
-0.368183 -0.321697 0 
-0.367757 -0.319164 0 
-0.367483 -0.318592 0 
-0.368578 -0.320623 0 
-0.367618 -0.319457 0 
-0.358404 -0.320838 0 
-0.366599 -0.319671 0 
-0.359213 -0.318806 0 
-0.367021 -0.318711 0 
-0.364836 -0.320633 0 
-0.367653 -0.321569 0 
-0.364032 -0.320807 0 
-0.366901 -0.321476 0 
-0.368495 -0.321937 0 
-0.367948 -0.322223 0 
-0.368464 -0.320908 0 
-0.367326 -0.320797 0 
-0.369508 -0.321361 0 
-0.368818 -0.321567 0 
-0.36957 -0.319737 0 
-0.367952 -0.320225 0 
VECTORS velocity double
0.0594611 0.924426 0 
0.547653 1.16185 0 
-0.392188 1.04368 0 
0.162589 0.724416 0 
0.155453 0.682132 0 
0.0718657 0.96514 0 
0.499476 0.041623 0 
0.413154 0.65819 0 
0.3819 0.711908 0 
0.0168885 0.300973 0 
0.497216 0.459081 0 
0.547184 -0.0876631 0 
0.219135 0.267415 0 
0.0064108 0.0202869 0 
0.472506 0.188072 0 
0.64026 -0.172734 0 
0.0317313 0.738693 0 
0.480612 0.930403 0 
-0.0369438 0.615117 0 
0.883409 0.935999 0 
0.53641 0.39966 0 
0.50895 0.881563 0 
0.783725 0.467072 0 
0.584278 0.823116 0 
0.504297 0.643292 0 
0.714061 0.184827 0 
0.63133 0.77967 0 
0.818072 0.316032 0 
0.453356 0.544892 0 
0.527227 0.32144 0 
0.68182 0.718094 0 
0.810246 0.309044 0 
-0.221587 0.351009 0 
0.578957 0.266121 0 
0.0655505 0.2959 0 
0.672911 0.346363 0 
0.54633 -0.0662956 0 
0.681425 0.326116 0 
0.851302 -0.0823411 0 
0.89755 0.415239 0 
0.675687 0.194238 0 
1.13033 -0.024842 0 
0.665594 0.3721 0 
1.16433 0.151775 0 
0.829711 0.0814673 0 
1.0068 0.107311 0 
0.928758 0.374434 0 
1.21923 0.306272 0 
0.4037 -0.313152 0 
0.817261 0.115565 0 
0.54576 -0.105991 0 
0.512807 -0.164688 0 
0.730812 -0.286058 0 
1.07246 0.230156 0 
1.01684 -0.19172 0 
1.12045 -0.0387016 0 
0.976812 0.244049 0 
1.23969 -0.351588 0 
1.0334 -0.0903052 0 
1.12192 -0.337723 0 
0.851626 0.233406 0 
1.2645 0.0285185 0 
0.992495 -0.106641 0 
1.25127 -0.22926 0 
SCALARS mass double 1
LOOKUP_TABLE default
0.625
0.625
0.625
0.625
0.625
0.625
0.625
0.625
0.625
0.625
0.625
0.625
0.625
0.625
0.625
0.625
0.625
0.625
0.625
0.625
0.625
0.625
0.625
0.625
0.625
0.625
0.625
0.625
0.625
0.625
0.625
0.625
0.625
0.625
0.625
0.625
0.625
0.625
0.625
0.625
0.625
0.625
0.625
0.625
0.625
0.625
0.625
0.625
0.625
0.625
0.625
0.625
0.625
0.625
0.625
0.625
0.625
0.625
0.625
0.625
0.625
0.625
0.625
0.625
SCALARS volume double 1
LOOKUP_TABLE default
0.000643671
0.000593472
0.000625297
0.000599989
0.000597834
0.000594533
0.000634803
0.000611401
0.000561032
0.000592241
0.000612529
0.0006396
0.000562863
0.000597399
0.000599181
0.000628797
0.000658817
0.000615048
0.000638368
0.000621834
0.000625072
0.000612876
0.000625048
0.000610505
0.000618413
0.000594083
0.000615199
0.000633217
0.000634485
0.000622183
0.000605721
0.000625925
0.000633393
0.000608871
0.000641025
0.000630645
0.000628994
0.000616559
0.00062397
0.00060523
0.000630564
0.000603982
0.000664445
0.000590559
0.000638273
0.000630816
0.000647164
0.000622451
0.000638833
0.000631333
0.00062758
0.000633739
0.000600706
0.000614634
0.000616825
0.00061894
0.000607662
0.000617239
0.000627792
0.000623336
0.000624708
0.000627159
0.000636913
0.000621592
VECTORS momentum double
0.0371632 0.577766 0 
0.342283 0.726158 0 
-0.245117 0.652301 0 
0.101618 0.45276 0 
0.0971584 0.426333 0 
0.0449161 0.603213 0 
0.312173 0.0260143 0 
0.258221 0.411369 0 
0.238688 0.444943 0 
0.0105553 0.188108 0 
0.31076 0.286925 0 
0.34199 -0.0547895 0 
0.13696 0.167135 0 
0.00400675 0.0126793 0 
0.295316 0.117545 0 
0.400162 -0.107958 0 
0.019832 0.461683 0 
0.300382 0.581502 0 
-0.0230899 0.384448 0 
0.55213 0.584999 0 
0.335256 0.249787 0 
0.318094 0.550977 0 
0.489828 0.29192 0 
0.365174 0.514448 0 
0.315186 0.402057 0 
0.446288 0.115517 0 
0.394581 0.487294 0 
0.511295 0.19752 0 
0.283347 0.340558 0 
0.329517 0.2009 0 
0.426137 0.448809 0 
0.506404 0.193153 0 
-0.138492 0.219381 0 
0.361848 0.166326 0 
0.0409691 0.184937 0 
0.42057 0.216477 0 
0.341456 -0.0414347 0 
0.425891 0.203822 0 
0.532063 -0.0514632 0 
0.560968 0.259525 0 
0.422305 0.121399 0 
0.706455 -0.0155262 0 
0.415996 0.232562 0 
0.727709 0.0948597 0 
0.51857 0.0509171 0 
0.629253 0.0670691 0 
0.580474 0.234021 0 
0.762021 0.19142 0 
0.252312 -0.19572 0 
0.510788 0.0722281 0 
0.3411 -0.0662446 0 
0.320504 -0.10293 0 
0.456758 -0.178786 0 
0.670288 0.143848 0 
0.635525 -0.119825 0 
0.700281 -0.0241885 0 
0.610507 0.152531 0 
0.774807 -0.219742 0 
0.645875 -0.0564408 0 
0.701201 -0.211077 0 
0.532266 0.145879 0 
0.79031 0.017824 0 
0.620309 -0.0666506 0 
0.782044 -0.143288 0 
VECTORS body_force double
0 -9.81 0 
0 -9.81 0 
0 -9.81 0 
0 -9.81 0 
0 -9.81 0 
0 -9.81 0 
0 -9.81 0 
0 -9.81 0 
0 -9.81 0 
0 -9.81 0 
0 -9.81 0 
0 -9.81 0 
0 -9.81 0 
0 -9.81 0 
0 -9.81 0 
0 -9.81 0 
0 -9.81 0 
0 -9.81 0 
0 -9.81 0 
0 -9.81 0 
0 -9.81 0 
0 -9.81 0 
0 -9.81 0 
0 -9.81 0 
0 -9.81 0 
0 -9.81 0 
0 -9.81 0 
0 -9.81 0 
0 -9.81 0 
0 -9.81 0 
0 -9.81 0 
0 -9.81 0 
0 -9.81 0 
0 -9.81 0 
0 -9.81 0 
0 -9.81 0 
0 -9.81 0 
0 -9.81 0 
0 -9.81 0 
0 -9.81 0 
0 -9.81 0 
0 -9.81 0 
0 -9.81 0 
0 -9.81 0 
0 -9.81 0 
0 -9.81 0 
0 -9.81 0 
0 -9.81 0 
0 -9.81 0 
0 -9.81 0 
0 -9.81 0 
0 -9.81 0 
0 -9.81 0 
0 -9.81 0 
0 -9.81 0 
0 -9.81 0 
0 -9.81 0 
0 -9.81 0 
0 -9.81 0 
0 -9.81 0 
0 -9.81 0 
0 -9.81 0 
0 -9.81 0 
0 -9.81 0 
TENSORS cauchy_stress double
5278.74 1041.5 0
1041.5 381.948 0
0 0 0

-4583.53 -2073.86 0
-2073.86 -5370.61 0
0 0 0

2705.07 -2054.95 0
-2054.95 -2613.74 0
0 0 0

-1326.43 -2839.28 0
-2839.28 -6527.33 0
0 0 0

-5424.56 960.921 0
960.921 -3121.17 0
0 0 0

-5894.37 2676.92 0
2676.92 -3716.19 0
0 0 0

5027.18 -1332.65 0
-1332.65 -2034.4 0
0 0 0

-2423.97 -983.846 0
-983.846 -1806.44 0
0 0 0

-11142.9 -1205.6 0
-1205.6 -9621.32 0
0 0 0

-10505.2 1417.13 0
1417.13 151.645 0
0 0 0

-1510.44 -2227.69 0
-2227.69 -2365.53 0
0 0 0

1299.19 3051.8 0
3051.8 3141.51 0
0 0 0

-8114.58 -1043.86 0
-1043.86 -12023.2 0
0 0 0

-9748.03 386.071 0
386.071 1062.07 0
0 0 0

-7771.17 -1448.94 0
-1448.94 -341.811 0
0 0 0

1622.83 1406.4 0
1406.4 -458.074 0
0 0 0

8442.4 -948.624 0
-948.624 1691.06 0
0 0 0

-2025.29 803.536 0
803.536 -1061.39 0
0 0 0

4189.89 -1856.3 0
-1856.3 -120.02 0
0 0 0

-1251.2 -947.981 0
-947.981 274.433 0
0 0 0

1250.03 4575.18 0
4575.18 -1227.82 0
0 0 0

-2663.24 1465.69 0
1465.69 -1103.8 0
0 0 0

1781.65 -895.857 0
-895.857 -1767 0
0 0 0

-3147.96 -3803.14 0
-3803.14 -1364.67 0
0 0 0

-3303.7 1139.95 0
1139.95 1266.24 0
0 0 0

-5474.31 893.522 0
893.522 -4281.84 0
0 0 0

-4694.63 633.448 0
633.448 1654.94 0
0 0 0

1922.5 -1467.32 0
-1467.32 589.381 0
0 0 0

-561.28 1110.3 0
1110.3 3457.9 0
0 0 0

-1369.05 -344.952 0
-344.952 500.397 0
0 0 0

-5208.08 -1156.22 0
-1156.22 -817.274 0
0 0 0

-3088.69 1970.81 0
1970.81 3372.94 0
0 0 0

975.344 -763.678 0
-763.678 1589.86 0
0 0 0

-6616.37 57.4485 0
57.4485 1588.39 0
0 0 0

5706.2 -1531.17 0
-1531.17 -837.493 0
0 0 0

-55.918 -1158.74 0
-1158.74 1784.97 0
0 0 0

1028.85 -24.9386 0
-24.9386 196.256 0
0 0 0

-1061.59 -2973.3 0
-2973.3 -1553.19 0
0 0 0

1048.9 -1470.3 0
-1470.3 -1366.15 0
0 0 0

-2988.59 -1255.92 0
-1255.92 -3192.71 0
0 0 0

-1836.12 1439.73 0
1439.73 3540.67 0
0 0 0

-3189.72 -1527.46 0
-1527.46 -3388.52 0
0 0 0

3069.07 1132.36 0
1132.36 8700.27 0
0 0 0

43.4909 -3644.23 0
-3644.23 -10943.8 0
0 0 0

-3595.17 345.851 0
345.851 7636.29 0
0 0 0

4220.45 -1425.63 0
-1425.63 -2439.13 0
0 0 0

-1101.61 678.038 0
678.038 7803.1 0
0 0 0

-4070.19 -1019.83 0
-1019.83 3284.36 0
0 0 0

2141.38 -663.266 0
-663.266 2068.39 0
0 0 0

-2037.33 -1481.2 0
-1481.2 3976.23 0
0 0 0

1127.53 566.284 0
566.284 -335.429 0
0 0 0

331.439 1122.49 0
1122.49 2338.92 0
0 0 0

-2874.24 -1629.67 0
-1629.67 -4750.12 0
0 0 0

154.426 -3236.7 0
-3236.7 -3370.75 0
0 0 0

-1109.68 1916.04 0
1916.04 -1422.45 0
0 0 0

-57.9335 -806.287 0
-806.287 -1815.72 0
0 0 0

-4991.14 -455.289 0
-455.289 -419.152 0
0 0 0

293.103 -1777.8 0
-1777.8 -2696.07 0
0 0 0

-1206.58 -810.813 0
-810.813 2063.63 0
0 0 0

-68.601 -1157.46 0
-1157.46 -444.105 0
0 0 0

-1968.08 775.329 0
775.329 1878.25 0
0 0 0

547.654 -1130.88 0
-1130.88 115.508 0
0 0 0

261.162 -1258.06 0
-1258.06 3369.86 0
0 0 0

-987.413 78.7822 0
78.7822 -63.9306 0
0 0 0

TENSORS velocity_gradient double
1.91858 4.42053 0
-2.18259 -1.43362 0
0 0 0

3.5414 3.55711 0
-2.29133 -3.4249 0
0 0 0

1.24261 7.36424 0
-2.35516 -1.07554 0
0 0 0

2.70072 4.64356 0
-2.18211 -3.36649 0
0 0 0

5.31879 3.45239 0
-3.22552 -3.3855 0
0 0 0

5.79726 0.118407 0
-2.63753 -4.56493 0
0 0 0

3.60209 4.6194 0
-1.89033 -3.37431 0
0 0 0

4.4736 0.843908 0
-1.20131 -3.59146 0
0 0 0

6.26772 0.0895226 0
-1.97981 -4.63174 0
0 0 0

6.24266 -0.775997 0
-1.49532 -6.23967 0
0 0 0

5.306 0.807327 0
-0.271837 -3.6323 0
0 0 0

5.97935 -0.424373 0
1.09378 -4.91984 0
0 0 0

6.07194 -0.770364 0
-0.284903 -6.15518 0
0 0 0

6.00122 0.65066 0
-0.454697 -4.87175 0
0 0 0

6.56065 -0.380826 0
2.75042 -4.79573 0
0 0 0

6.57509 0.499446 0
3.95308 -3.98001 0
0 0 0

1.49027 10.1513 0
-5.1177 -1.21675 0
0 0 0

2.61581 5.56827 0
-4.03554 -3.03979 0
0 0 0

1.65113 10.8982 0
-7.45314 -1.4794 0
0 0 0

2.39702 6.46936 0
-7.16702 -2.50667 0
0 0 0

3.5512 5.53509 0
-3.29771 -3.05576 0
0 0 0

4.41342 1.57615 0
-2.06637 -2.75341 0
0 0 0

3.30596 6.47964 0
-6.58145 -2.50004 0
0 0 0

4.00336 2.22123 0
-5.70505 -1.71362 0
0 0 0

5.27981 1.54603 0
-0.718673 -2.79552 0
0 0 0

6.02212 0.090568 0
1.21566 -3.4523 0
0 0 0

4.63024 2.20121 0
-4.58687 -1.74933 0
0 0 0

5.44009 0.951294 0
-3.42475 -2.09021 0
0 0 0

6.59228 0.13457 0
2.43598 -3.35878 0
0 0 0

6.60268 0.243959 0
3.46639 -3.01683 0
0 0 0

6.40992 0.980439 0
-2.15468 -2.05205 0
0 0 0

7.10669 0.598564 0
-1.17951 -2.19033 0
0 0 0

3.27826 10.9767 0
-7.83347 -1.66252 0
0 0 0

2.6371 7.26883 0
-7.19293 -1.92813 0
0 0 0

4.59436 8.63932 0
-8.16549 -1.25104 0
0 0 0

3.75175 7.43615 0
-7.14626 -0.784709 0
0 0 0

3.41045 7.28496 0
-6.4078 -1.89419 0
0 0 0

3.98361 2.78439 0
-5.67837 -0.703044 0
0 0 0

3.73176 7.43528 0
-5.86803 -0.729087 0
0 0 0

3.70174 2.90023 0
-5.22218 -0.203347 0
0 0 0

4.57796 2.78206 0
-4.61661 -0.708818 0
0 0 0

5.3903 1.86986 0
-3.46399 -0.883424 0
0 0 0

3.66526 2.9008 0
-4.88874 -0.208585 0
0 0 0

3.34087 1.73367 0
-4.5989 -0.378548 0
0 0 0

6.41833 1.86886 0
-2.12484 -0.886888 0
0 0 0

7.02128 1.13955 0
-1.24478 -1.40881 0
0 0 0

2.82045 1.74242 0
-4.30497 -0.383492 0
0 0 0

3.56986 2.22734 0
-4.03485 -1.02815 0
0 0 0

2.34079 6.06488 0
-4.0895 -0.832803 0
0 0 0

3.41886 7.42424 0
-6.61969 0.410311 0
0 0 0

1.52204 3.49933 0
-2.99172 -0.630212 0
0 0 0

1.02542 7.59409 0
-3.20259 0.431811 0
0 0 0

3.11285 7.43084 0
-5.27593 0.440194 0
0 0 0

3.66537 2.86365 0
-5.19822 0.12612 0
0 0 0

1.23507 7.61982 0
-3.51714 0.393198 0
0 0 0

1.18819 2.7061 0
-3.37862 0.513333 0
0 0 0

3.66653 2.86552 0
-4.90032 0.113897 0
0 0 0

3.34906 1.23181 0
-4.60353 -0.0950975 0
0 0 0

0.993861 2.7185 0
-2.97868 0.487808 0
0 0 0

0.755242 0.90297 0
-3.38778 -0.638532 0
0 0 0

2.83311 1.26348 0
-4.31212 -0.112984 0
0 0 0

3.46689 3.439 0
-4.05475 -0.793998 0
0 0 0

0.482945 0.926642 0
-4.22877 -0.565422 0
0 0 0

0.0246319 3.41289 0
-4.47668 -0.737483 0
0 0 0

SCALARS active double 1
LOOKUP_TABLE default
1
1
1
1
1
1
1
1
1
1
1
1
1
1
1
1
1
1
1
1
1
1
1
1
1
1
1
1
1
1
1
1
1
1
1
1
1
1
1
1
1
1
1
1
1
1
1
1
1
1
1
1
1
1
1
1
1
1
1
1
1
1
1
1
SCALARS extent double 1
LOOKUP_TABLE default
0.0125
0.0125
0.0125
0.0125
0.0125
0.0125
0.0125
0.0125
0.0125
0.0125
0.0125
0.0125
0.0125
0.0125
0.0125
0.0125
0.0125
0.0125
0.0125
0.0125
0.0125
0.0125
0.0125
0.0125
0.0125
0.0125
0.0125
0.0125
0.0125
0.0125
0.0125
0.0125
0.0125
0.0125
0.0125
0.0125
0.0125
0.0125
0.0125
0.0125
0.0125
0.0125
0.0125
0.0125
0.0125
0.0125
0.0125
0.0125
0.0125
0.0125
0.0125
0.0125
0.0125
0.0125
0.0125
0.0125
0.0125
0.0125
0.0125
0.0125
0.0125
0.0125
0.0125
0.0125
SCALARS pressure double 1
LOOKUP_TABLE default
-2830.34
4977.07
-45.665
3926.88
4272.86
4805.28
-1496.39
2115.2
10382.1
5176.77
1937.98
-2220.35
10068.9
4342.98
4056.49
-582.377
-5066.73
1543.34
-2034.93
488.384
-11.1028
1883.52
-7.32679
2256.31
1018.73
4878.07
1519.84
-1255.94
-1448.31
434.326
3012.68
-142.126
-1282.6
2513.99
-2434.35
-864.527
-612.555
1307.39
158.622
3090.65
-852.275
3289.12
-5884.67
5450.17
-2020.56
-890.662
-3350.74
392.916
-2104.88
-969.451
-396.048
-1335.18
3812.18
1608.16
1266.07
936.827
2705.14
1201.48
-428.521
256.353
44.9181
-331.581
-1815.51
525.672
SCALARS density double 1
LOOKUP_TABLE default
970.993
1053.12
999.525
1041.68
1045.44
1051.24
984.558
1022.24
1114.02
1055.31
1020.36
977.173
1110.4
1046.2
1043.09
993.962
948.67
1016.18
979.059
1005.09
999.885
1019.78
999.924
1023.74
1010.65
1052.04
1015.93
987.023
985.05
1004.53
1031.83
998.523
986.749
1026.49
975.001
991.049
993.65
1013.69
1001.65
1032.66
991.176
1034.8
940.635
1058.32
979.205
990.78
965.752
1004.09
978.347
989.968
995.89
986.21
1040.44
1016.87
1013.25
1009.79
1028.53
1012.57
995.553
1002.67
1000.47
996.557
981.296
1005.48
