# vtk DataFile Version 3.0
Frame: 33, Time: 0.567
ASCII
DATASET UNSTRUCTURED_GRID
POINTS 64 double
0.155335 0.0714627 0 
0.15335 0.0963567 0 
0.179304 0.0733178 0 
0.177247 0.0983935 0 
0.149407 0.121026 0 
0.148531 0.146926 0 
0.174394 0.122617 0 
0.173847 0.147187 0 
0.14503 0.172411 0 
0.143676 0.197961 0 
0.171879 0.172564 0 
0.169343 0.197198 0 
0.145625 0.224021 0 
0.14439 0.248265 0 
0.171108 0.223682 0 
0.170077 0.248906 0 
0.204433 0.0759155 0 
0.201834 0.101311 0 
0.227651 0.0758643 0 
0.225778 0.100725 0 
0.198897 0.12578 0 
0.197295 0.149546 0 
0.224866 0.125278 0 
0.222789 0.148809 0 
0.195403 0.17493 0 
0.192314 0.19904 0 
0.221776 0.174522 0 
0.219147 0.198507 0 
0.193989 0.224298 0 
0.195107 0.251996 0 
0.219717 0.223842 0 
0.219716 0.250514 0 
0.251958 0.0739072 0 
0.249183 0.0997339 0 
0.278638 0.0751939 0 
0.274418 0.100393 0 
0.249642 0.12502 0 
0.247283 0.149005 0 
0.275289 0.125617 0 
0.272297 0.15029 0 
0.246826 0.174212 0 
0.244836 0.198494 0 
0.271199 0.175441 0 
0.269496 0.199552 0 
0.244326 0.225035 0 
0.244626 0.250514 0 
0.268978 0.224846 0 
0.270215 0.250813 0 
0.303336 0.075278 0 
0.297898 0.101332 0 
0.327657 0.0743534 0 
0.322632 0.100611 0 
0.299903 0.126206 0 
0.297279 0.150844 0 
0.326035 0.124594 0 
0.322837 0.15099 0 
0.295589 0.175245 0 
0.294981 0.199649 0 
0.320637 0.176596 0 
0.321278 0.200686 0 
0.293516 0.225005 0 
0.294606 0.250165 0 
0.319065 0.226382 0 
0.321052 0.251051 0 
CELLS 64 128
1 0
1 1
1 2
1 3
1 4
1 5
1 6
1 7
1 8
1 9
1 10
1 11
1 12
1 13
1 14
1 15
1 16
1 17
1 18
1 19
1 20
1 21
1 22
1 23
1 24
1 25
1 26
1 27
1 28
1 29
1 30
1 31
1 32
1 33
1 34
1 35
1 36
1 37
1 38
1 39
1 40
1 41
1 42
1 43
1 44
1 45
1 46
1 47
1 48
1 49
1 50
1 51
1 52
1 53
1 54
1 55
1 56
1 57
1 58
1 59
1 60
1 61
1 62
1 63
CELL_TYPES 64
1
1
1
1
1
1
1
1
1
1
1
1
1
1
1
1
1
1
1
1
1
1
1
1
1
1
1
1
1
1
1
1
1
1
1
1
1
1
1
1
1
1
1
1
1
1
1
1
1
1
1
1
1
1
1
1
1
1
1
1
1
1
1
1
POINT_DATA 64
VECTORS displacement double
-0.257165 -0.341037 0 
-0.25915 -0.341143 0 
-0.258196 -0.339182 0 
-0.260253 -0.339106 0 
-0.263093 -0.341474 0 
-0.263969 -0.340574 0 
-0.263106 -0.339883 0 
-0.263653 -0.340313 0 
-0.26747 -0.340089 0 
-0.268824 -0.339539 0 
-0.265621 -0.339936 0 
-0.268157 -0.340302 0 
-0.266875 -0.338479 0 
-0.26811 -0.339235 0 
-0.266392 -0.338818 0 
-0.267423 -0.338594 0 
-0.258067 -0.336585 0 
-0.260666 -0.336189 0 
-0.259849 -0.336636 0 
-0.261722 -0.336775 0 
-0.263603 -0.33672 0 
-0.265205 -0.337954 0 
-0.262634 -0.337222 0 
-0.264711 -0.338691 0 
-0.267097 -0.33757 0 
-0.270186 -0.33846 0 
-0.265724 -0.337978 0 
-0.268353 -0.338993 0 
-0.268511 -0.338202 0 
-0.267393 -0.335504 0 
-0.267783 -0.338658 0 
-0.267784 -0.336986 0 
-0.260542 -0.338593 0 
-0.263317 -0.337766 0 
-0.258862 -0.337306 0 
-0.263082 -0.337107 0 
-0.262858 -0.33748 0 
-0.265217 -0.338495 0 
-0.262211 -0.336883 0 
-0.265203 -0.33721 0 
-0.265674 -0.338288 0 
-0.267664 -0.339006 0 
-0.266301 -0.337059 0 
-0.268004 -0.337948 0 
-0.268174 -0.337465 0 
-0.267874 -0.336986 0 
-0.268522 -0.337654 0 
-0.267285 -0.336687 0 
-0.259164 -0.337222 0 
-0.264602 -0.336168 0 
-0.259843 -0.338147 0 
-0.264868 -0.336889 0 
-0.262597 -0.336294 0 
-0.265221 -0.336656 0 
-0.261465 -0.337906 0 
-0.264663 -0.33651 0 
-0.266911 -0.337255 0 
-0.267519 -0.337851 0 
-0.266863 -0.335904 0 
-0.266222 -0.336814 0 
-0.268984 -0.337495 0 
-0.267894 -0.337335 0 
-0.268435 -0.336118 0 
-0.266448 -0.336449 0 
VECTORS velocity double
-0.744617 -1.0387 0 
-0.747123 -0.788577 0 
-0.868167 -0.648507 0 
-1.27423 -0.866297 0 
-1.08583 -1.5365 0 
-0.948469 -1.0262 0 
-1.14308 -1.23419 0 
-0.982513 -0.626027 0 
-0.959507 -0.933337 0 
-1.50194 -1.13555 0 
-0.852581 -0.599516 0 
-0.914226 -1.25395 0 
-1.23002 -1.07718 0 
-1.46217 -1.53559 0 
-1.25277 -1.03839 0 
-1.36748 -1.20427 0 
-0.591168 -1.05392 0 
-1.01017 -0.783264 0 
-1.04759 -0.79553 0 
-1.11589 -0.479658 0 
-1.06662 -1.15892 0 
-1.04607 -0.762071 0 
-1.1119 -1.00474 0 
-1.23155 -0.75605 0 
-0.968105 -0.44434 0 
-1.01674 -0.817212 0 
-0.81794 -0.250147 0 
-0.813867 -0.682403 0 
-1.54902 -0.754913 0 
-1.27407 -0.951521 0 
-1.29548 -0.539544 0 
-1.14101 -0.912399 0 
-0.766678 -0.852087 0 
-1.31414 -0.958494 0 
-0.998294 -0.876785 0 
-1.0544 -0.745585 0 
-1.25852 -1.25055 0 
-1.08686 -0.730404 0 
-1.0927 -1.23099 0 
-0.984518 -0.540701 0 
-0.815564 -0.513045 0 
-0.579232 -0.829655 0 
-1.04966 -0.387376 0 
-0.862672 -0.629823 0 
-1.28778 -0.994986 0 
-1.14032 -1.09956 0 
-1.2679 -0.729104 0 
-1.05792 -0.927643 0 
-0.98106 -0.829072 0 
-0.896227 -0.459811 0 
-1.19823 -0.876135 0 
-1.00473 -0.985436 0 
-1.47792 -1.28883 0 
-1.08659 -0.853586 0 
-1.12256 -1.11782 0 
-1.19136 -0.63638 0 
-1.02221 -0.669865 0 
-0.937822 -1.10331 0 
-1.32294 -0.703656 0 
-1.273 -0.707071 0 
-1.0851 -0.833007 0 
-0.992759 -1.21048 0 
-0.712653 -0.565022 0 
-1.14287 -0.674134 0 
SCALARS mass double 1
LOOKUP_TABLE default
0.625
0.625
0.625
0.625
0.625
0.625
0.625
0.625
0.625
0.625
0.625
0.625
0.625
0.625
0.625
0.625
0.625
0.625
0.625
0.625
0.625
0.625
0.625
0.625
0.625
0.625
0.625
0.625
0.625
0.625
0.625
0.625
0.625
0.625
0.625
0.625
0.625
0.625
0.625
0.625
0.625
0.625
0.625
0.625
0.625
0.625
0.625
0.625
0.625
0.625
0.625
0.625
0.625
0.625
0.625
0.625
0.625
0.625
0.625
0.625
0.625
0.625
0.625
0.625
SCALARS volume double 1
LOOKUP_TABLE default
0.000622947
0.000624397
0.000611541
0.000645143
0.000634614
0.000660857
0.00061016
0.000605442
0.000642305
0.000619735
0.000619993
0.000615838
0.000637187
0.000627159
0.000630988
0.000609265
0.000630708
0.000659139
0.000592293
0.000620931
0.000621075
0.000637008
0.000618856
0.000617413
0.000649198
0.00058003
0.000647757
0.000629311
0.000661868
0.000627987
0.000625068
0.000636934
0.000642088
0.000618567
0.000603438
0.000616326
0.00063986
0.000616507
0.000628618
0.000608735
0.000641273
0.000588565
0.000675272
0.00058478
0.000635392
0.000622377
0.000650796
0.000626508
0.000637827
0.000626665
0.000610124
0.000655894
0.000620775
0.000629691
0.000634491
0.000647773
0.000605308
0.000612657
0.00061416
0.000613413
0.000628846
0.000631325
0.000644159
0.000621295
VECTORS momentum double
-0.465386 -0.649189 0 
-0.466952 -0.49286 0 
-0.542604 -0.405317 0 
-0.796393 -0.541436 0 
-0.678643 -0.960314 0 
-0.592793 -0.641377 0 
-0.714425 -0.771369 0 
-0.61407 -0.391267 0 
-0.599692 -0.583335 0 
-0.938715 -0.709717 0 
-0.532863 -0.374698 0 
-0.571391 -0.78372 0 
-0.768764 -0.67324 0 
-0.913857 -0.959742 0 
-0.782981 -0.648993 0 
-0.854674 -0.752668 0 
-0.36948 -0.658699 0 
-0.631356 -0.48954 0 
-0.654741 -0.497206 0 
-0.697429 -0.299786 0 
-0.666639 -0.724328 0 
-0.653792 -0.476294 0 
-0.694939 -0.627964 0 
-0.769718 -0.472531 0 
-0.605065 -0.277713 0 
-0.635462 -0.510758 0 
-0.511212 -0.156342 0 
-0.508667 -0.426502 0 
-0.968139 -0.47182 0 
-0.796293 -0.5947 0 
-0.809673 -0.337215 0 
-0.713134 -0.57025 0 
-0.479174 -0.532555 0 
-0.821335 -0.599059 0 
-0.623933 -0.547991 0 
-0.659001 -0.465991 0 
-0.786573 -0.781593 0 
-0.679285 -0.456502 0 
-0.682935 -0.769368 0 
-0.615324 -0.337938 0 
-0.509728 -0.320653 0 
-0.36202 -0.518534 0 
-0.656039 -0.24211 0 
-0.53917 -0.393639 0 
-0.804863 -0.621866 0 
-0.712698 -0.687224 0 
-0.792436 -0.45569 0 
-0.6612 -0.579777 0 
-0.613163 -0.51817 0 
-0.560142 -0.287382 0 
-0.748891 -0.547584 0 
-0.627959 -0.615897 0 
-0.923699 -0.805519 0 
-0.679116 -0.533491 0 
-0.701597 -0.698636 0 
-0.744601 -0.397738 0 
-0.638882 -0.418666 0 
-0.586139 -0.689571 0 
-0.826837 -0.439785 0 
-0.795622 -0.441919 0 
-0.678187 -0.520629 0 
-0.620474 -0.756547 0 
-0.445408 -0.353139 0 
-0.714295 -0.421334 0 
VECTORS body_force double
0 -9.81 0 
0 -9.81 0 
0 -9.81 0 
0 -9.81 0 
0 -9.81 0 
0 -9.81 0 
0 -9.81 0 
0 -9.81 0 
0 -9.81 0 
0 -9.81 0 
0 -9.81 0 
0 -9.81 0 
0 -9.81 0 
0 -9.81 0 
0 -9.81 0 
0 -9.81 0 
0 -9.81 0 
0 -9.81 0 
0 -9.81 0 
0 -9.81 0 
0 -9.81 0 
0 -9.81 0 
0 -9.81 0 
0 -9.81 0 
0 -9.81 0 
0 -9.81 0 
0 -9.81 0 
0 -9.81 0 
0 -9.81 0 
0 -9.81 0 
0 -9.81 0 
0 -9.81 0 
0 -9.81 0 
0 -9.81 0 
0 -9.81 0 
0 -9.81 0 
0 -9.81 0 
0 -9.81 0 
0 -9.81 0 
0 -9.81 0 
0 -9.81 0 
0 -9.81 0 
0 -9.81 0 
0 -9.81 0 
0 -9.81 0 
0 -9.81 0 
0 -9.81 0 
0 -9.81 0 
0 -9.81 0 
0 -9.81 0 
0 -9.81 0 
0 -9.81 0 
0 -9.81 0 
0 -9.81 0 
0 -9.81 0 
0 -9.81 0 
0 -9.81 0 
0 -9.81 0 
0 -9.81 0 
0 -9.81 0 
0 -9.81 0 
0 -9.81 0 
0 -9.81 0 
0 -9.81 0 
TENSORS cauchy_stress double
374.151 12.5609 0
12.5609 -1006.84 0
0 0 0

-2367.11 -2426.72 0
-2426.72 2181.41 0
0 0 0

-2116.8 431.121 0
431.121 -2069.69 0
0 0 0

1925.56 474.249 0
474.249 4174.39 0
0 0 0

-616.026 804.522 0
804.522 3551.79 0
0 0 0

2429.24 675.817 0
675.817 8298.74 0
0 0 0

228.852 -315.314 0
-315.314 -4850.04 0
0 0 0

-3858.15 586.44 0
586.44 -2255.71 0
0 0 0

2958.2 -3249.95 0
-3249.95 2294.12 0
0 0 0

-2469.85 2611.65 0
2611.65 843.127 0
0 0 0

-496.041 -3255.21 0
-3255.21 -1050.71 0
0 0 0

-1687.73 3643.75 0
3643.75 -1152.23 0
0 0 0

1935.7 -2516.96 0
-2516.96 1777.99 0
0 0 0

-675.884 1652.14 0
1652.14 1339.11 0
0 0 0

-4393.54 -1642.63 0
-1642.63 6227.37 0
0 0 0

210.922 904.937 0
904.937 -5114.52 0
0 0 0

429.856 -872.331 0
-872.331 1318.58 0
0 0 0

1645.4 1119.33 0
1119.33 8582.18 0
0 0 0

-6123.69 -2974.15 0
-2974.15 -4212.84 0
0 0 0

-2993.73 1110.07 0
1110.07 1737.49 0
0 0 0

2250.28 1197.37 0
1197.37 -3461.84 0
0 0 0

4055.94 2930.43 0
2930.43 -396.346 0
0 0 0

2859.43 -4370.58 0
-4370.58 -4759.14 0
0 0 0

-299.22 -646.562 0
-646.562 -2049.46 0
0 0 0

4299.5 -567.715 0
-567.715 3005.5 0
0 0 0

-4849.69 -847.057 0
-847.057 -9510.19 0
0 0 0

1853.06 -935.887 0
-935.887 5024.71 0
0 0 0

5267.05 -3884.58 0
-3884.58 -3945.11 0
0 0 0

4099.56 309.841 0
309.841 6922.56 0
0 0 0

801.031 -238.02 0
-238.02 115.797 0
0 0 0

-1182.49 -11.6726 0
-11.6726 1203.34 0
0 0 0

-1863.38 2945.36 0
2945.36 5500.86 0
0 0 0

3369.69 -2090.22 0
-2090.22 1817.66 0
0 0 0

-3952.98 4896.11 0
4896.11 1963.42 0
0 0 0

-2172.01 -2156.72 0
-2156.72 -4579.64 0
0 0 0

-3487.91 2015.21 0
2015.21 800.421 0
0 0 0

4085.27 -2248.53 0
-2248.53 433.466 0
0 0 0

882.805 606.867 0
606.867 -3514.02 0
0 0 0

1431.57 -5132.97 0
-5132.97 -321.45 0
0 0 0

-2034.54 -1784.5 0
-1784.5 -3036.5 0
0 0 0

-83.511 1249.95 0
1249.95 5026.49 0
0 0 0

-3938.25 -3151.03 0
-3151.03 -7612.54 0
0 0 0

4249.23 -402.555 0
-402.555 10628.4 0
0 0 0

967.381 -6367.8 0
-6367.8 -13759 0
0 0 0

-3347.17 2981.21 0
2981.21 6518.27 0
0 0 0

4905.91 72.865 0
72.865 -5714.72 0
0 0 0

1057.8 2369.23 0
2369.23 6719.88 0
0 0 0

-880.647 -335.848 0
-335.848 1343.95 0
0 0 0

1797.72 1029.52 0
1029.52 2109.04 0
0 0 0

-3833.4 3118.35 0
3118.35 4345.13 0
0 0 0

-2173.41 -1065.34 0
-1065.34 -2459.19 0
0 0 0

2350.21 -762.231 0
-762.231 6928.16 0
0 0 0

96.2222 -2032.57 0
-2032.57 -1400.55 0
0 0 0

1686.39 -1748.64 0
-1748.64 -248.461 0
0 0 0

-361.117 -1469.67 0
-1469.67 3259.56 0
0 0 0

-236.277 -1937.02 0
-1937.02 7118.84 0
0 0 0

-5633.99 1535.99 0
1535.99 -522.504 0
0 0 0

1169.56 -1938.88 0
-1938.88 -5005.41 0
0 0 0

-2790.73 -171.195 0
-171.195 -573.8 0
0 0 0

1368.57 -2513.97 0
-2513.97 -4967.25 0
0 0 0

-637.382 4008.06 0
4008.06 1817.15 0
0 0 0

967.643 1314.08 0
1314.08 968.675 0
0 0 0

1057.54 -1413.9 0
-1413.9 4749.03 0
0 0 0

22.6254 406.742 0
406.742 -1165.89 0
0 0 0

TENSORS velocity_gradient double
-0.866401 -2.20084 0
1.46255 -1.86622 0
0 0 0

-0.809852 -1.85117 0
1.8544 -1.2867 0
0 0 0

-0.942601 -2.87075 0
1.4905 -1.54149 0
0 0 0

-1.48638 -2.02152 0
1.92386 -0.217771 0
0 0 0

-1.32626 -1.19373 0
2.93557 0.143851 0
0 0 0

-3.09976 -2.04426 0
4.02543 -0.0675437 0
0 0 0

-1.01301 -1.11367 0
2.95341 1.32498 0
0 0 0

-0.238047 -1.32235 0
4.09834 0.937073 0
0 0 0

-1.99545 -4.27912 0
3.3203 -0.377477 0
0 0 0

1.07509 -3.77277 0
1.91396 -2.37264 0
0 0 0

1.45421 -1.83259 0
5.12542 0.175161 0
0 0 0

3.02563 -2.68444 0
6.06082 -1.59554 0
0 0 0

1.15259 -2.94622 0
2.41887 -5.13302 0
0 0 0

0.574151 -3.93097 0
1.88983 -2.10366 0
0 0 0

2.32876 -4.01516 0
6.79355 -4.6761 0
0 0 0

1.53128 -3.65867 0
7.03957 -2.3969 0
0 0 0

-1.51567 -3.51028 0
0.169504 -1.23751 0
0 0 0

-1.73518 -1.37579 0
0.733983 1.24457 0
0 0 0

-1.55262 -3.92168 0
0.066714 -1.06365 0
0 0 0

-1.8297 -1.33632 0
0.251329 1.29671 0
0 0 0

-1.13834 -0.454704 0
1.78912 2.36489 0
0 0 0

-0.329594 -0.2225 0
2.88488 1.67029 0
0 0 0

-1.36586 0.15172 0
0.440247 2.69181 0
0 0 0

-0.719773 0.817777 0
0.609944 2.04324 0
0 0 0

1.43411 -0.106573 0
4.24668 1.047 0
0 0 0

3.05108 -2.56389 0
6.11596 -1.50622 0
0 0 0

0.723832 1.57043 0
0.715427 1.31551 0
0 0 0

2.04212 -1.4462 0
0.709082 -1.26966 0
0 0 0

2.31906 -4.99271 0
6.04566 -4.13348 0
0 0 0

1.76927 -2.7386 0
5.40505 -2.86761 0
0 0 0

2.40315 -5.10496 0
0.0647392 -4.59505 0
0 0 0

2.56414 -2.94009 0
-0.306265 -2.57007 0
0 0 0

-0.888675 -3.95304 0
0.383537 -0.934435 0
0 0 0

-0.517497 -1.55821 0
0.249546 1.05545 0
0 0 0

-0.576683 -2.27393 0
0.497519 -1.00947 0
0 0 0

0.694371 -1.38143 0
0.237595 0.577749 0
0 0 0

-0.752273 0.458637 0
-0.286631 2.68491 0
0 0 0

-0.962932 1.67228 0
-0.301781 2.09961 0
0 0 0

-0.293447 -0.646468 0
-0.890376 1.57716 0
0 0 0

-1.442 1.39761 0
-1.89752 1.64085 0
0 0 0

-0.188642 2.9345 0
-0.128612 1.41224 0
0 0 0

1.34612 -0.47721 0
0.337153 -1.50162 0
0 0 0

-2.06145 2.75514 0
-1.86193 1.57337 0
0 0 0

-2.18558 -0.162014 0
-1.54608 -1.57186 0
0 0 0

2.09837 -4.86538 0
-0.0246968 -5.2655 0
0 0 0

2.49263 -2.81632 0
-0.181598 -1.65784 0
0 0 0

-0.00875969 -2.90816 0
-0.391309 -4.45721 0
0 0 0

2.13786 -2.18628 0
0.454844 -1.80942 0
0 0 0

-1.94827 -0.735429 0
-0.873676 -0.964264 0
0 0 0

-0.105627 -1.4304 0
-0.118623 0.101671 0
0 0 0

-2.22681 0.27968 0
-1.13369 -0.470564 0
0 0 0

-1.2544 -0.876352 0
-0.595017 0.278523 0
0 0 0

-0.587393 -1.65766 0
-0.479534 0.601899 0
0 0 0

-1.14317 0.768636 0
-1.06045 1.41373 0
0 0 0

-0.803465 -1.4051 0
-0.187891 0.861437 0
0 0 0

-0.605816 0.227484 0
0.373769 2.17234 0
0 0 0

-1.92511 2.1965 0
-1.08569 1.80941 0
0 0 0

-2.17341 0.852496 0
-0.78451 -0.838769 0
0 0 0

-1.545 1.244 0
1.5242 2.81329 0
0 0 0

-2.1287 1.46459 0
2.68213 -0.00801013 0
0 0 0

-0.0391841 -0.466054 0
-0.106771 -3.2162 0
0 0 0

1.88313 -1.4688 0
1.20674 -2.38853 0
0 0 0

-0.636435 1.46636 0
3.97275 -1.92707 0
0 0 0

0.641877 -1.39188 0
5.39647 -0.774601 0
0 0 0

SCALARS active double 1
LOOKUP_TABLE default
1
1
1
1
1
1
1
1
1
1
1
1
1
1
1
1
1
1
1
1
1
1
1
1
1
1
1
1
1
1
1
1
1
1
1
1
1
1
1
1
1
1
1
1
1
1
1
1
1
1
1
1
1
1
1
1
1
1
1
1
1
1
1
1
SCALARS extent double 1
LOOKUP_TABLE default
0.0125
0.0125
0.0125
0.0125
0.0125
0.0125
0.0125
0.0125
0.0125
0.0125
0.0125
0.0125
0.0125
0.0125
0.0125
0.0125
0.0125
0.0125
0.0125
0.0125
0.0125
0.0125
0.0125
0.0125
0.0125
0.0125
0.0125
0.0125
0.0125
0.0125
0.0125
0.0125
0.0125
0.0125
0.0125
0.0125
0.0125
0.0125
0.0125
0.0125
0.0125
0.0125
0.0125
0.0125
0.0125
0.0125
0.0125
0.0125
0.0125
0.0125
0.0125
0.0125
0.0125
0.0125
0.0125
0.0125
0.0125
0.0125
0.0125
0.0125
0.0125
0.0125
0.0125
0.0125
SCALARS pressure double 1
LOOKUP_TABLE default
316.347
92.8472
2093.24
-3049.98
-1467.88
-5363.99
2310.59
3056.93
-2626.16
813.363
773.376
1419.98
-1856.84
-331.613
-916.917
2451.8
-874.217
-5113.79
5168.26
628.117
605.781
-1829.8
949.856
1174.34
-3652.5
7179.94
-3438.89
-660.967
-5511.06
-458.414
-10.4232
-1818.74
-2593.68
994.78
3375.83
1343.75
-2259.37
1315.61
-555.059
2535.52
-2471.49
5775.39
-7438.83
6395.82
-1585.55
404.404
-3888.84
-231.652
-1953.38
-255.867
2316.3
-4639.18
652.163
-718.965
-1449.22
-3441.28
3078.25
1917.92
1682.26
1799.34
-589.884
-968.159
-2903.28
571.632
SCALARS density double 1
LOOKUP_TABLE default
1003.3
1000.97
1022.01
968.778
984.85
945.742
1024.32
1032.3
973.058
1008.49
1008.08
1014.88
980.874
996.557
990.509
1025.83
990.949
948.206
1055.22
1006.55
1006.32
981.15
1009.93
1012.29
962.726
1077.53
964.868
993.15
944.297
995.244
999.892
981.263
973.386
1010.4
1035.73
1014.07
976.776
1013.78
994.244
1026.72
974.624
1061.9
925.553
1068.78
983.646
1004.21
960.363
997.594
979.89
997.343
1024.38
952.898
1006.81
992.551
985.041
964.844
1032.53
1020.15
1017.65
1018.89
993.884
989.982
970.257
1005.96
