# vtk DataFile Version 3.0
Frame: 27, Time: 0.467
ASCII
DATASET UNSTRUCTURED_GRID
POINTS 64 double
0.851961 0.42 0 
0.865062 0.397474 0 
0.829672 0.407174 0 
0.842272 0.383719 0 
0.877831 0.375853 0 
0.890693 0.35399 0 
0.85478 0.362262 0 
0.868165 0.340419 0 
0.903951 0.332342 0 
0.917897 0.311394 0 
0.881716 0.318529 0 
0.896548 0.298023 0 
0.932374 0.289942 0 
0.945381 0.267564 0 
0.91062 0.27695 0 
0.92241 0.253534 0 
0.808611 0.394756 0 
0.820297 0.371468 0 
0.786366 0.383605 0 
0.797568 0.35958 0 
0.832476 0.348965 0 
0.84573 0.328309 0 
0.808159 0.337379 0 
0.821711 0.316261 0 
0.859007 0.306412 0 
0.872929 0.286379 0 
0.835518 0.294618 0 
0.850055 0.273372 0 
0.887274 0.26542 0 
0.899176 0.242152 0 
0.865014 0.25257 0 
0.878033 0.229994 0 
0.76411 0.372061 0 
0.773139 0.348695 0 
0.740628 0.360534 0 
0.750669 0.336823 0 
0.785181 0.326364 0 
0.79786 0.30407 0 
0.762945 0.313253 0 
0.775635 0.291656 0 
0.812559 0.282794 0 
0.827799 0.261694 0 
0.790325 0.270668 0 
0.805407 0.249821 0 
0.841506 0.240104 0 
0.854557 0.217954 0 
0.81819 0.227969 0 
0.831652 0.205721 0 
0.718013 0.347152 0 
0.728927 0.324611 0 
0.694147 0.335307 0 
0.705531 0.312168 0 
0.741043 0.301377 0 
0.753989 0.278416 0 
0.718657 0.289338 0 
0.732622 0.265923 0 
0.769396 0.256579 0 
0.783716 0.234713 0 
0.746732 0.244327 0 
0.760766 0.22184 0 
0.798086 0.212723 0 
0.812366 0.191308 0 
0.775739 0.200135 0 
0.789693 0.178989 0 
CELLS 64 128
1 0
1 1
1 2
1 3
1 4
1 5
1 6
1 7
1 8
1 9
1 10
1 11
1 12
1 13
1 14
1 15
1 16
1 17
1 18
1 19
1 20
1 21
1 22
1 23
1 24
1 25
1 26
1 27
1 28
1 29
1 30
1 31
1 32
1 33
1 34
1 35
1 36
1 37
1 38
1 39
1 40
1 41
1 42
1 43
1 44
1 45
1 46
1 47
1 48
1 49
1 50
1 51
1 52
1 53
1 54
1 55
1 56
1 57
1 58
1 59
1 60
1 61
1 62
1 63
CELL_TYPES 64
1
1
1
1
1
1
1
1
1
1
1
1
1
1
1
1
1
1
1
1
1
1
1
1
1
1
1
1
1
1
1
1
1
1
1
1
1
1
1
1
1
1
1
1
1
1
1
1
1
1
1
1
1
1
1
1
1
1
1
1
1
1
1
1
POINT_DATA 64
VECTORS displacement double
0.339461 -0.1925 0 
0.352562 -0.240026 0 
0.292172 -0.205326 0 
0.304772 -0.253781 0 
0.365331 -0.286647 0 
0.378193 -0.33351 0 
0.31728 -0.300238 0 
0.330665 -0.347081 0 
0.391451 -0.380158 0 
0.405397 -0.426106 0 
0.344216 -0.393971 0 
0.359048 -0.439477 0 
0.419874 -0.472558 0 
0.432881 -0.519936 0 
0.37312 -0.48555 0 
0.38491 -0.533966 0 
0.246111 -0.217744 0 
0.257797 -0.266032 0 
0.198866 -0.228895 0 
0.210068 -0.27792 0 
0.269976 -0.313535 0 
0.28323 -0.359191 0 
0.220659 -0.325121 0 
0.234211 -0.371239 0 
0.296507 -0.406088 0 
0.310429 -0.451121 0 
0.248018 -0.417882 0 
0.262555 -0.464128 0 
0.324774 -0.49708 0 
0.336676 -0.545348 0 
0.277514 -0.50993 0 
0.290533 -0.557506 0 
0.15161 -0.240439 0 
0.160639 -0.288805 0 
0.103128 -0.251966 0 
0.113169 -0.300677 0 
0.172681 -0.336136 0 
0.18536 -0.38343 0 
0.125445 -0.349247 0 
0.138135 -0.395844 0 
0.200059 -0.429706 0 
0.215299 -0.475806 0 
0.152825 -0.441832 0 
0.167907 -0.487679 0 
0.229006 -0.522396 0 
0.242057 -0.569546 0 
0.18069 -0.534531 0 
0.194152 -0.581779 0 
0.0555133 -0.265348 0 
0.0664274 -0.312889 0 
0.0066466 -0.277193 0 
0.0180313 -0.325332 0 
0.078543 -0.361123 0 
0.0914889 -0.409084 0 
0.0311566 -0.373162 0 
0.0451218 -0.421577 0 
0.106896 -0.455921 0 
0.121216 -0.502787 0 
0.0592323 -0.468173 0 
0.0732663 -0.51566 0 
0.135586 -0.549777 0 
0.149866 -0.596192 0 
0.0882388 -0.562365 0 
0.102193 -0.608511 0 
VECTORS velocity double
4.08466 -0.863082 0 
3.33121 -1.56493 0 
3.22916 0.247547 0 
2.24642 -0.774959 0 
2.76565 -1.57051 0 
2.5943 -2.01484 0 
1.70213 -0.540727 0 
1.49665 -0.902151 0 
2.43756 -1.72068 0 
2.02628 -2.35545 0 
1.25606 -0.743022 0 
1.22834 -1.23704 0 
2.26625 -2.54206 0 
1.12922 -3.12831 0 
1.30964 -1.27129 0 
0.0158325 -2.24946 0 
3.27752 0.413337 0 
2.4038 -0.632282 0 
3.33473 1.45281 0 
1.89506 0.116712 0 
2.24213 -0.018221 0 
2.27685 -0.648721 0 
1.74877 0.276022 0 
1.88753 -0.128 0 
1.81791 -0.722918 0 
1.80463 -0.860181 0 
1.31539 -0.584 0 
1.18349 -0.704003 0 
1.70806 -0.97115 0 
0.148673 -2.03582 0 
1.36609 -0.715785 0 
0.0839276 -1.84649 0 
3.34825 1.32291 0 
1.63384 0.645009 0 
3.01483 1.6485 0 
1.42643 1.19989 0 
1.56392 0.467152 0 
1.48436 0.603118 0 
1.63619 1.06222 0 
1.16428 1.08266 0 
1.27305 0.192293 0 
1.05321 0.128848 0 
0.660631 0.33893 0 
0.90126 0.660298 0 
0.5991 0.0211453 0 
-0.0343931 -0.901608 0 
0.319071 0.79327 0 
-0.743476 -0.369606 0 
3.13231 1.70189 0 
1.60517 1.01365 0 
2.28869 2.88112 0 
1.08257 2.14223 0 
1.95372 1.05762 0 
1.60413 1.07174 0 
1.39842 1.96475 0 
0.88495 1.92527 0 
1.19388 0.579935 0 
1.15005 0.437392 0 
0.498153 1.02245 0 
0.208646 0.476648 0 
0.822386 0.631431 0 
-0.422422 -0.590606 0 
-0.106043 1.50701 0 
-0.404192 0.428795 0 
SCALARS mass double 1
LOOKUP_TABLE default
0.625
0.625
0.625
0.625
0.625
0.625
0.625
0.625
0.625
0.625
0.625
0.625
0.625
0.625
0.625
0.625
0.625
0.625
0.625
0.625
0.625
0.625
0.625
0.625
0.625
0.625
0.625
0.625
0.625
0.625
0.625
0.625
0.625
0.625
0.625
0.625
0.625
0.625
0.625
0.625
0.625
0.625
0.625
0.625
0.625
0.625
0.625
0.625
0.625
0.625
0.625
0.625
0.625
0.625
0.625
0.625
0.625
0.625
0.625
0.625
0.625
0.625
0.625
0.625
SCALARS volume double 1
LOOKUP_TABLE default
0.000636104
0.000634768
0.000612303
0.000646271
0.000628281
0.000645596
0.000616631
0.000629918
0.000636977
0.000626268
0.000629484
0.000612866
0.000637557
0.000630665
0.000629448
0.000655042
0.000616011
0.000637691
0.00062404
0.000642129
0.00063743
0.000642079
0.000612303
0.000640357
0.000614095
0.000631936
0.00067777
0.000658984
0.000624552
0.000630295
0.000649738
0.000617164
0.000634866
0.000635022
0.000627633
0.000644414
0.00062382
0.000639095
0.00062039
0.000641023
0.000630623
0.000588414
0.00065979
0.000617499
0.000673533
0.000653684
0.000629348
0.000599255
0.000641212
0.000643758
0.000645499
0.000625294
0.000625334
0.000622787
0.000653902
0.000657604
0.000642186
0.000657896
0.000629902
0.00062285
0.000630468
0.000641516
0.000610667
0.00062652
VECTORS momentum double
2.55291 -0.539426 0 
2.08201 -0.978081 0 
2.01822 0.154717 0 
1.40401 -0.484349 0 
1.72853 -0.981569 0 
1.62144 -1.25927 0 
1.06383 -0.337955 0 
0.935407 -0.563844 0 
1.52347 -1.07542 0 
1.26642 -1.47216 0 
0.785038 -0.464389 0 
0.767713 -0.773149 0 
1.4164 -1.58879 0 
0.70576 -1.95519 0 
0.818527 -0.794554 0 
0.00989528 -1.40591 0 
2.04845 0.258336 0 
1.50238 -0.395176 0 
2.08421 0.908008 0 
1.18441 0.0729447 0 
1.40133 -0.0113881 0 
1.42303 -0.40545 0 
1.09298 0.172514 0 
1.1797 -0.08 0 
1.1362 -0.451824 0 
1.12789 -0.537613 0 
0.822117 -0.365 0 
0.739684 -0.440002 0 
1.06754 -0.606969 0 
0.0929204 -1.27239 0 
0.853808 -0.447366 0 
0.0524548 -1.15406 0 
2.09266 0.826817 0 
1.02115 0.403131 0 
1.88427 1.03031 0 
0.891516 0.74993 0 
0.97745 0.29197 0 
0.927728 0.376949 0 
1.02262 0.663885 0 
0.727677 0.676662 0 
0.795659 0.120183 0 
0.658256 0.0805303 0 
0.412894 0.211831 0 
0.563288 0.412686 0 
0.374437 0.0132158 0 
-0.0214957 -0.563505 0 
0.19942 0.495794 0 
-0.464673 -0.231003 0 
1.95769 1.06368 0 
1.00323 0.633531 0 
1.43043 1.8007 0 
0.676604 1.33889 0 
1.22107 0.661013 0 
1.00258 0.669837 0 
0.874015 1.22797 0 
0.553093 1.20329 0 
0.746176 0.36246 0 
0.718781 0.27337 0 
0.311346 0.639034 0 
0.130404 0.297905 0 
0.513992 0.394644 0 
-0.264014 -0.369128 0 
-0.0662771 0.94188 0 
-0.25262 0.267997 0 
VECTORS body_force double
0 -9.81 0 
0 -9.81 0 
0 -9.81 0 
0 -9.81 0 
0 -9.81 0 
0 -9.81 0 
0 -9.81 0 
0 -9.81 0 
0 -9.81 0 
0 -9.81 0 
0 -9.81 0 
0 -9.81 0 
0 -9.81 0 
0 -9.81 0 
0 -9.81 0 
0 -9.81 0 
0 -9.81 0 
0 -9.81 0 
0 -9.81 0 
0 -9.81 0 
0 -9.81 0 
0 -9.81 0 
0 -9.81 0 
0 -9.81 0 
0 -9.81 0 
0 -9.81 0 
0 -9.81 0 
0 -9.81 0 
0 -9.81 0 
0 -9.81 0 
0 -9.81 0 
0 -9.81 0 
0 -9.81 0 
0 -9.81 0 
0 -9.81 0 
0 -9.81 0 
0 -9.81 0 
0 -9.81 0 
0 -9.81 0 
0 -9.81 0 
0 -9.81 0 
0 -9.81 0 
0 -9.81 0 
0 -9.81 0 
0 -9.81 0 
0 -9.81 0 
0 -9.81 0 
0 -9.81 0 
0 -9.81 0 
0 -9.81 0 
0 -9.81 0 
0 -9.81 0 
0 -9.81 0 
0 -9.81 0 
0 -9.81 0 
0 -9.81 0 
0 -9.81 0 
0 -9.81 0 
0 -9.81 0 
0 -9.81 0 
0 -9.81 0 
0 -9.81 0 
0 -9.81 0 
0 -9.81 0 
TENSORS cauchy_stress double
1868.22 615.532 0
615.532 1518.46 0
0 0 0

-1857.96 727.421 0
727.421 4840.35 0
0 0 0

-173.776 -3726.98 0
-3726.98 -3773.35 0
0 0 0

-1217.91 2515.12 0
2515.12 7653.94 0
0 0 0

1040.1 2440.39 0
2440.39 -33.1038 0
0 0 0

3982.33 812.865 0
812.865 2252.71 0
0 0 0

1020.67 541.581 0
541.581 -3613.06 0
0 0 0

-208.398 -1975.75 0
-1975.75 1715.58 0
0 0 0

3877.65 -67.0206 0
-67.0206 -227.375 0
0 0 0

2754.84 -875.003 0
-875.003 -2365.02 0
0 0 0

2583.06 -514.452 0
-514.452 -1208.19 0
0 0 0

1775.89 -1491.38 0
-1491.38 -5546.15 0
0 0 0

32.5122 -464.781 0
-464.781 3792.75 0
0 0 0

369.42 652.115 0
652.115 1365.72 0
0 0 0

-208.995 1988.57 0
1988.57 1572.65 0
0 0 0

6199.09 443.422 0
443.422 2829.35 0
0 0 0

-366.145 260.911 0
260.911 -2419.66 0
0 0 0

-55.0503 -1000.08 0
-1000.08 3920.81 0
0 0 0

-719.147 -2730.62 0
-2730.62 423.548 0
0 0 0

3571.14 2291.59 0
2291.59 1628.48 0
0 0 0

5875.69 2310.81 0
2310.81 -2088.47 0
0 0 0

5608.17 1969.68 0
1969.68 -423.725 0
0 0 0

-2248.15 -350.52 0
-350.52 -1698.84 0
0 0 0

6226.02 1133.85 0
1133.85 -1557.97 0
0 0 0

-283.715 -483.893 0
-483.893 -3101.36 0
0 0 0

8250.19 190.764 0
190.764 -6127.65 0
0 0 0

11634.9 -458.6 0
-458.6 3952.86 0
0 0 0

10424.3 -1972.57 0
-1972.57 -242.206 0
0 0 0

2214.36 -1049.95 0
-1049.95 -2352.28 0
0 0 0

-109.966 -3595.22 0
-3595.22 1732.33 0
0 0 0

4828.03 -446.391 0
-446.391 2636.88 0
0 0 0

-2066.17 -2445.86 0
-2445.86 -360.286 0
0 0 0

1996.65 770.951 0
770.951 1015.35 0
0 0 0

570.393 2383.81 0
2383.81 2488.69 0
0 0 0

974.268 -83.5102 0
-83.5102 -165.932 0
0 0 0

132.944 -1960.72 0
-1960.72 5749.59 0
0 0 0

3495.65 -2427.19 0
-2427.19 -3859.21 0
0 0 0

6496.41 -2744.72 0
-2744.72 -2207.7 0
0 0 0

-2375.47 1201.75 0
1201.75 951.731 0
0 0 0

5743.41 2754.76 0
2754.76 -875.43 0
0 0 0

7168.2 -4859.01 0
-4859.01 -5445.91 0
0 0 0

-3013.58 -3901.46 0
-3901.46 -8586.71 0
0 0 0

5226.5 -2179.75 0
-2179.75 5190.72 0
0 0 0

-1544.49 4099.69 0
4099.69 -777.449 0
0 0 0

11190.1 155.055 0
155.055 3191.72 0
0 0 0

8160.15 2516.12 0
2516.12 469.094 0
0 0 0

2674.89 -2222.84 0
-2222.84 -1341.73 0
0 0 0

-4751.87 -4080.93 0
-4080.93 -3337.48 0
0 0 0

5745.77 1586.72 0
1586.72 -821.108 0
0 0 0

3799.74 1631.78 0
1631.78 1886.95 0
0 0 0

2484.8 -759.246 0
-759.246 3721.22 0
0 0 0

-3845.96 2318.24 0
2318.24 3936.31 0
0 0 0

-301.598 -1843.17 0
-1843.17 404.419 0
0 0 0

-296.419 -4066.19 0
-4066.19 -385.721 0
0 0 0

2790.5 -962.037 0
-962.037 5903 0
0 0 0

4407.08 -3033.34 0
-3033.34 5372.12 0
0 0 0

4092.26 -2462.5 0
-2462.5 1124.39 0
0 0 0

5616.57 7.35638 0
7.35638 4247.91 0
0 0 0

-335.075 998.784 0
998.784 1837.63 0
0 0 0

-120.902 -3569.05 0
-3569.05 -541.672 0
0 0 0

1067.22 -1423.49 0
-1423.49 608.008 0
0 0 0

1011.14 -342.464 0
-342.464 4004.69 0
0 0 0

-3213.69 -1371.5 0
-1371.5 -1247.89 0
0 0 0

1986.78 2551.92 0
2551.92 -1519.67 0
0 0 0

TENSORS velocity_gradient double
-0.911702 18.4695 0
-19.5358 1.97524 0
0 0 0

-1.17759 17.596 0
-16.9441 -0.730238 0
0 0 0

0.163804 18.0988 0
-22.604 0.186987 0
0 0 0

-0.209515 18.7202 0
-22.1825 -2.15068 0
0 0 0

1.07429 16.1192 0
-17.2563 -2.51241 0
0 0 0

3.31558 14.5067 0
-17.553 -2.29931 0
0 0 0

1.67359 18.3348 0
-18.4389 -2.67708 0
0 0 0

3.375 10.3048 0
-17.5825 -1.79826 0
0 0 0

-1.47228 11.706 0
-14.5182 -0.796723 0
0 0 0

0.151265 9.58261 0
-19.0194 2.72902 0
0 0 0

1.88725 11.2478 0
-17.4437 -1.88624 0
0 0 0

0.754325 14.3808 0
-18.0807 0.807122 0
0 0 0

2.2894 17.7811 0
-22.1111 0.524684 0
0 0 0

0.378914 18.2852 0
-19.6577 -0.800346 0
0 0 0

1.68728 16.8182 0
-20.7638 2.67927 0
0 0 0

0.651312 17.5884 0
-18.3154 0.852319 0
0 0 0

-0.268397 18.3401 0
-22.6869 0.0589609 0
0 0 0

-0.331038 18.5128 0
-21.3046 -0.652534 0
0 0 0

-3.9262 18.6953 0
-18.935 1.45984 0
0 0 0

-3.04402 18.4679 0
-18.0016 0.817838 0
0 0 0

-0.289467 14.047 0
-19.947 -1.41609 0
0 0 0

0.817862 9.59198 0
-19.4121 -1.58193 0
0 0 0

0.271175 11.9584 0
-19.585 -0.891982 0
0 0 0

1.58972 11.0889 0
-19.2032 -1.14488 0
0 0 0

1.02761 9.7013 0
-17.3635 -1.74197 0
0 0 0

0.145611 15.5175 0
-18.6289 0.663877 0
0 0 0

2.22731 13.5147 0
-19.012 -1.80243 0
0 0 0

0.471129 14.6985 0
-19.6271 -1.36726 0
0 0 0

-0.493669 15.972 0
-20.7695 2.18556 0
0 0 0

-0.654428 20.5032 0
-19.7063 -0.53386 0
0 0 0

-0.891839 16.2983 0
-22.0282 -0.0806508 0
0 0 0

-1.40926 20.0131 0
-22.8467 0.238039 0
0 0 0

-3.66928 19.1715 0
-18.2913 2.65293 0
0 0 0

-3.16427 14.9885 0
-17.1549 0.712501 0
0 0 0

-2.3914 18.1517 0
-14.6861 1.40328 0
0 0 0

-2.49236 13.7513 0
-16.3668 0.514874 0
0 0 0

-2.65687 12.7365 0
-16.5016 -0.328059 0
0 0 0

-1.23273 12.2937 0
-16.4611 -0.908546 0
0 0 0

-2.34593 13.247 0
-16.1376 0.269401 0
0 0 0

-1.80005 12.4615 0
-14.7567 0.542578 0
0 0 0

1.53048 12.4261 0
-19.2027 -2.23447 0
0 0 0

0.224843 13.3967 0
-19.5612 -1.96801 0
0 0 0

-1.20052 12.0299 0
-12.3583 -1.1839 0
0 0 0

-0.591211 14.4584 0
-18.3072 0.0470216 0
0 0 0

-1.14434 18.8258 0
-19.284 0.19506 0
0 0 0

-1.81476 19.4793 0
-22.3258 -0.120228 0
0 0 0

-1.97449 17.2978 0
-18.6534 1.35578 0
0 0 0

-3.41787 17.9537 0
-17.5263 0.537359 0
0 0 0

-2.85739 16.1497 0
-15.9935 0.263595 0
0 0 0

-1.24907 15.3214 0
-16.0847 0.618587 0
0 0 0

-4.99132 16.3197 0
-16.0835 -0.316765 0
0 0 0

-1.79781 16.8864 0
-16.6162 0.511569 0
0 0 0

0.12149 13.4134 0
-16.1268 1.81256 0
0 0 0

-1.27184 12.9149 0
-14.1637 2.77442 0
0 0 0

-0.236678 10.9979 0
-16.3633 2.47577 0
0 0 0

-1.76336 11.9386 0
-16.9726 2.85127 0
0 0 0

-0.800904 12.724 0
-10.7328 1.24743 0
0 0 0

-1.0905 15.6271 0
-10.0799 2.20034 0
0 0 0

-3.07728 14.0458 0
-15.4001 2.76168 0
0 0 0

-1.47718 14.9534 0
-10.1144 2.14027 0
0 0 0

-2.14771 16.1373 0
-12.6595 2.13156 0
0 0 0

-3.9598 8.4146 0
-15.5753 -0.0968294 0
0 0 0

-2.10298 11.1913 0
-10.1996 2.07988 0
0 0 0

-2.66802 7.94199 0
-10.408 2.15076 0
0 0 0

SCALARS active double 1
LOOKUP_TABLE default
1
1
1
1
1
1
1
1
1
1
1
1
1
1
1
1
1
1
1
1
1
1
1
1
1
1
1
1
1
1
1
1
1
1
1
1
1
1
1
1
1
1
1
1
1
1
1
1
1
1
1
1
1
1
1
1
1
1
1
1
1
1
1
1
SCALARS extent double 1
LOOKUP_TABLE default
0.0125
0.0125
0.0125
0.0125
0.0125
0.0125
0.0125
0.0125
0.0125
0.0125
0.0125
0.0125
0.0125
0.0125
0.0125
0.0125
0.0125
0.0125
0.0125
0.0125
0.0125
0.0125
0.0125
0.0125
0.0125
0.0125
0.0125
0.0125
0.0125
0.0125
0.0125
0.0125
0.0125
0.0125
0.0125
0.0125
0.0125
0.0125
0.0125
0.0125
0.0125
0.0125
0.0125
0.0125
0.0125
0.0125
0.0125
0.0125
0.0125
0.0125
0.0125
0.0125
0.0125
0.0125
0.0125
0.0125
0.0125
0.0125
0.0125
0.0125
0.0125
0.0125
0.0125
0.0125
SCALARS pressure double 1
LOOKUP_TABLE default
-1693.34
-1491.2
1973.56
-3218.02
-503.499
-3117.52
1296.2
-753.593
-1825.14
-194.907
-687.438
1885.13
-1912.63
-867.569
-681.826
-4514.22
1392.9
-1932.88
147.8
-2599.81
-1893.61
-2592.22
1973.49
-2334.02
1692.54
-1061.27
-7793.88
-5091.07
68.9582
-811.181
-3732.45
1213.23
-1506
-1529.54
-404.168
-2941.27
181.78
-2144.35
711.872
-2433.99
-861.145
5800.15
-5208.61
1160.97
-7190.92
-4314.62
-666.58
4044.67
-2462.33
-2843.34
-3103.01
-45.1759
-51.4106
341.07
-4346.75
-4889.6
-2608.33
-4932.24
-751.277
331.287
-837.616
-2507.92
2230.79
-233.558
SCALARS density double 1
LOOKUP_TABLE default
982.543
984.611
1020.74
967.086
994.777
968.098
1013.57
992.193
981.198
997.975
992.876
1019.8
980.305
991.018
992.934
954.137
1014.59
980.099
1001.54
973.324
980.499
973.401
1020.74
976.018
1017.76
989.023
922.142
948.43
1000.72
991.599
961.926
1012.7
984.46
984.219
995.805
969.874
1001.89
977.946
1007.43
975.004
991.084
1062.18
947.272
1012.15
927.942
956.12
993.092
1042.96
974.717
970.862
968.244
999.53
999.465
1003.55
955.8
950.419
973.238
949.998
992.217
1003.45
991.327
974.255
1023.47
997.574
