# vtk DataFile Version 3.0
Frame: 0, Time: 0
ASCII
DATASET UNSTRUCTURED_GRID
POINTS 64 double
0.4125 0.41249 0 
0.4125 0.43749 0 
0.4375 0.41249 0 
0.4375 0.43749 0 
0.4125 0.46249 0 
0.4125 0.48749 0 
0.4375 0.46249 0 
0.4375 0.48749 0 
0.4125 0.51249 0 
0.4125 0.53749 0 
0.4375 0.51249 0 
0.4375 0.53749 0 
0.4125 0.56249 0 
0.4125 0.58749 0 
0.4375 0.56249 0 
0.4375 0.58749 0 
0.4625 0.41249 0 
0.4625 0.43749 0 
0.4875 0.41249 0 
0.4875 0.43749 0 
0.4625 0.46249 0 
0.4625 0.48749 0 
0.4875 0.46249 0 
0.4875 0.48749 0 
0.4625 0.51249 0 
0.4625 0.53749 0 
0.4875 0.51249 0 
0.4875 0.53749 0 
0.4625 0.56249 0 
0.4625 0.58749 0 
0.4875 0.56249 0 
0.4875 0.58749 0 
0.5125 0.41249 0 
0.5125 0.43749 0 
0.5375 0.41249 0 
0.5375 0.43749 0 
0.5125 0.46249 0 
0.5125 0.48749 0 
0.5375 0.46249 0 
0.5375 0.48749 0 
0.5125 0.51249 0 
0.5125 0.53749 0 
0.5375 0.51249 0 
0.5375 0.53749 0 
0.5125 0.56249 0 
0.5125 0.58749 0 
0.5375 0.56249 0 
0.5375 0.58749 0 
0.5625 0.41249 0 
0.5625 0.43749 0 
0.5875 0.41249 0 
0.5875 0.43749 0 
0.5625 0.46249 0 
0.5625 0.48749 0 
0.5875 0.46249 0 
0.5875 0.48749 0 
0.5625 0.51249 0 
0.5625 0.53749 0 
0.5875 0.51249 0 
0.5875 0.53749 0 
0.5625 0.56249 0 
0.5625 0.58749 0 
0.5875 0.56249 0 
0.5875 0.58749 0 
CELLS 64 128
1 0
1 1
1 2
1 3
1 4
1 5
1 6
1 7
1 8
1 9
1 10
1 11
1 12
1 13
1 14
1 15
1 16
1 17
1 18
1 19
1 20
1 21
1 22
1 23
1 24
1 25
1 26
1 27
1 28
1 29
1 30
1 31
1 32
1 33
1 34
1 35
1 36
1 37
1 38
1 39
1 40
1 41
1 42
1 43
1 44
1 45
1 46
1 47
1 48
1 49
1 50
1 51
1 52
1 53
1 54
1 55
1 56
1 57
1 58
1 59
1 60
1 61
1 62
1 63
CELL_TYPES 64
1
1
1
1
1
1
1
1
1
1
1
1
1
1
1
1
1
1
1
1
1
1
1
1
1
1
1
1
1
1
1
1
1
1
1
1
1
1
1
1
1
1
1
1
1
1
1
1
1
1
1
1
1
1
1
1
1
1
1
1
1
1
1
1
POINT_DATA 64
VECTORS displacement double
0 -9.81e-06 0 
0 -9.81e-06 0 
0 -9.81e-06 0 
0 -9.81e-06 0 
0 -9.81e-06 0 
0 -9.81e-06 0 
0 -9.81e-06 0 
0 -9.81e-06 0 
0 -9.81e-06 0 
0 -9.81e-06 0 
0 -9.81e-06 0 
0 -9.81e-06 0 
0 -9.81e-06 0 
0 -9.81e-06 0 
0 -9.81e-06 0 
0 -9.81e-06 0 
0 -9.81e-06 0 
0 -9.81e-06 0 
0 -9.81e-06 0 
0 -9.81e-06 0 
0 -9.81e-06 0 
0 -9.81e-06 0 
0 -9.81e-06 0 
0 -9.81e-06 0 
0 -9.81e-06 0 
0 -9.81e-06 0 
0 -9.81e-06 0 
0 -9.81e-06 0 
0 -9.81e-06 0 
0 -9.81e-06 0 
0 -9.81e-06 0 
0 -9.81e-06 0 
0 -9.81e-06 0 
0 -9.81e-06 0 
0 -9.81e-06 0 
0 -9.81e-06 0 
0 -9.81e-06 0 
0 -9.81e-06 0 
0 -9.81e-06 0 
0 -9.81e-06 0 
0 -9.81e-06 0 
0 -9.81e-06 0 
0 -9.81e-06 0 
0 -9.81e-06 0 
0 -9.81e-06 0 
0 -9.81e-06 0 
0 -9.81e-06 0 
0 -9.81e-06 0 
0 -9.81e-06 0 
0 -9.81e-06 0 
0 -9.81e-06 0 
0 -9.81e-06 0 
0 -9.81e-06 0 
0 -9.81e-06 0 
0 -9.81e-06 0 
0 -9.81e-06 0 
0 -9.81e-06 0 
0 -9.81e-06 0 
0 -9.81e-06 0 
0 -9.81e-06 0 
-3.65978e-23 -9.81e-06 0 
-1.09793e-22 -9.81e-06 0 
-1.09793e-22 -9.81e-06 0 
-3.2938e-22 -9.81e-06 0 
VECTORS velocity double
0 -0.00981 0 
0 -0.00981 0 
0 -0.00981 0 
0 -0.00981 0 
0 -0.00981 0 
0 -0.00981 0 
0 -0.00981 0 
0 -0.00981 0 
0 -0.00981 0 
0 -0.00981 0 
0 -0.00981 0 
0 -0.00981 0 
0 -0.00981 0 
0 -0.00981 0 
0 -0.00981 0 
0 -0.00981 0 
0 -0.00981 0 
0 -0.00981 0 
0 -0.00981 0 
0 -0.00981 0 
0 -0.00981 0 
0 -0.00981 0 
0 -0.00981 0 
0 -0.00981 0 
0 -0.00981 0 
0 -0.00981 0 
0 -0.00981 0 
0 -0.00981 0 
0 -0.00981 0 
0 -0.00981 0 
0 -0.00981 0 
0 -0.00981 0 
0 -0.00981 0 
0 -0.00981 0 
0 -0.00981 0 
0 -0.00981 0 
0 -0.00981 0 
0 -0.00981 0 
0 -0.00981 0 
0 -0.00981 0 
0 -0.00981 0 
0 -0.00981 0 
0 -0.00981 0 
0 -0.00981 0 
0 -0.00981 0 
0 -0.00981 0 
0 -0.00981 0 
0 -0.00981 0 
0 -0.00981 0 
0 -0.00981 0 
0 -0.00981 0 
0 -0.00981 0 
0 -0.00981 0 
0 -0.00981 0 
0 -0.00981 0 
0 -0.00981 0 
0 -0.00981 0 
0 -0.00981 0 
0 -0.00981 0 
0 -0.00981 0 
-3.65978e-20 -0.00981 0 
-1.09793e-19 -0.00981 0 
-1.09793e-19 -0.00981 0 
-3.2938e-19 -0.00981 0 
SCALARS mass double 1
LOOKUP_TABLE default
0.625
0.625
0.625
0.625
0.625
0.625
0.625
0.625
0.625
0.625
0.625
0.625
0.625
0.625
0.625
0.625
0.625
0.625
0.625
0.625
0.625
0.625
0.625
0.625
0.625
0.625
0.625
0.625
0.625
0.625
0.625
0.625
0.625
0.625
0.625
0.625
0.625
0.625
0.625
0.625
0.625
0.625
0.625
0.625
0.625
0.625
0.625
0.625
0.625
0.625
0.625
0.625
0.625
0.625
0.625
0.625
0.625
0.625
0.625
0.625
0.625
0.625
0.625
0.625
SCALARS volume double 1
LOOKUP_TABLE default
0.000625
0.000625
0.000625
0.000625
0.000625
0.000625
0.000625
0.000625
0.000625
0.000625
0.000625
0.000625
0.000625
0.000625
0.000625
0.000625
0.000625
0.000625
0.000625
0.000625
0.000625
0.000625
0.000625
0.000625
0.000625
0.000625
0.000625
0.000625
0.000625
0.000625
0.000625
0.000625
0.000625
0.000625
0.000625
0.000625
0.000625
0.000625
0.000625
0.000625
0.000625
0.000625
0.000625
0.000625
0.000625
0.000625
0.000625
0.000625
0.000625
0.000625
0.000625
0.000625
0.000625
0.000625
0.000625
0.000625
0.000625
0.000625
0.000625
0.000625
0.000625
0.000625
0.000625
0.000625
VECTORS momentum double
0 -0.00613125 0 
0 -0.00613125 0 
0 -0.00613125 0 
0 -0.00613125 0 
0 -0.00613125 0 
0 -0.00613125 0 
0 -0.00613125 0 
0 -0.00613125 0 
0 -0.00613125 0 
0 -0.00613125 0 
0 -0.00613125 0 
0 -0.00613125 0 
0 -0.00613125 0 
0 -0.00613125 0 
0 -0.00613125 0 
0 -0.00613125 0 
0 -0.00613125 0 
0 -0.00613125 0 
0 -0.00613125 0 
0 -0.00613125 0 
0 -0.00613125 0 
0 -0.00613125 0 
0 -0.00613125 0 
0 -0.00613125 0 
0 -0.00613125 0 
0 -0.00613125 0 
0 -0.00613125 0 
0 -0.00613125 0 
0 -0.00613125 0 
0 -0.00613125 0 
0 -0.00613125 0 
0 -0.00613125 0 
0 -0.00613125 0 
0 -0.00613125 0 
0 -0.00613125 0 
0 -0.00613125 0 
0 -0.00613125 0 
0 -0.00613125 0 
0 -0.00613125 0 
0 -0.00613125 0 
0 -0.00613125 0 
0 -0.00613125 0 
0 -0.00613125 0 
0 -0.00613125 0 
0 -0.00613125 0 
0 -0.00613125 0 
0 -0.00613125 0 
0 -0.00613125 0 
0 -0.00613125 0 
0 -0.00613125 0 
0 -0.00613125 0 
0 -0.00613125 0 
0 -0.00613125 0 
0 -0.00613125 0 
0 -0.00613125 0 
0 -0.00613125 0 
0 -0.00613125 0 
0 -0.00613125 0 
0 -0.00613125 0 
0 -0.00613125 0 
-2.28736e-20 -0.00613125 0 
-6.86208e-20 -0.00613125 0 
-6.86208e-20 -0.00613125 0 
-2.05863e-19 -0.00613125 0 
VECTORS body_force double
0 -9.81 0 
0 -9.81 0 
0 -9.81 0 
0 -9.81 0 
0 -9.81 0 
0 -9.81 0 
0 -9.81 0 
0 -9.81 0 
0 -9.81 0 
0 -9.81 0 
0 -9.81 0 
0 -9.81 0 
0 -9.81 0 
0 -9.81 0 
0 -9.81 0 
0 -9.81 0 
0 -9.81 0 
0 -9.81 0 
0 -9.81 0 
0 -9.81 0 
0 -9.81 0 
0 -9.81 0 
0 -9.81 0 
0 -9.81 0 
0 -9.81 0 
0 -9.81 0 
0 -9.81 0 
0 -9.81 0 
0 -9.81 0 
0 -9.81 0 
0 -9.81 0 
0 -9.81 0 
0 -9.81 0 
0 -9.81 0 
0 -9.81 0 
0 -9.81 0 
0 -9.81 0 
0 -9.81 0 
0 -9.81 0 
0 -9.81 0 
0 -9.81 0 
0 -9.81 0 
0 -9.81 0 
0 -9.81 0 
0 -9.81 0 
0 -9.81 0 
0 -9.81 0 
0 -9.81 0 
0 -9.81 0 
0 -9.81 0 
0 -9.81 0 
0 -9.81 0 
0 -9.81 0 
0 -9.81 0 
0 -9.81 0 
0 -9.81 0 
0 -9.81 0 
0 -9.81 0 
0 -9.81 0 
0 -9.81 0 
0 -9.81 0 
0 -9.81 0 
0 -9.81 0 
0 -9.81 0 
TENSORS cauchy_stress double
-4.00321e-16 4.00321e-15 0
4.00321e-15 -9.34082e-16 0
0 0 0

1.60128e-15 -3.20257e-15 0
-3.20257e-15 3.73633e-15 0
0 0 0

-3.20257e-15 2.13504e-15 0
2.13504e-15 -7.47265e-15 0
0 0 0

0 -4.27009e-15 0
-4.27009e-15 0 0
0 0 0

3.60289e-15 -6.13825e-15 0
-6.13825e-15 8.40674e-15 0
0 0 0

8.00642e-15 -3.20257e-15 0
-3.20257e-15 1.86816e-14 0
0 0 0

-3.20257e-15 -4.27009e-15 0
-4.27009e-15 -7.47265e-15 0
0 0 0

6.40513e-15 -4.27009e-15 0
-4.27009e-15 1.49453e-14 0
0 0 0

-9.20738e-15 -6.13825e-15 0
-6.13825e-15 -2.14839e-14 0
0 0 0

0 -8.54018e-15 0
-8.54018e-15 0 0
0 0 0

4.80385e-15 -5.33761e-15 0
-5.33761e-15 1.1209e-14 0
0 0 0

-3.20257e-15 -1.06752e-14 0
-1.06752e-14 -7.47265e-15 0
0 0 0

-4.80385e-15 -7.47265e-15 0
-7.47265e-15 -1.1209e-14 0
0 0 0

-3.20257e-15 -8.54018e-15 0
-8.54018e-15 -7.47265e-15 0
0 0 0

9.6077e-15 -6.40513e-15 0
-6.40513e-15 2.2418e-14 0
0 0 0

6.40513e-15 -4.27009e-15 0
-4.27009e-15 1.49453e-14 0
0 0 0

-8.00642e-15 3.20257e-15 0
3.20257e-15 -1.86816e-14 0
0 0 0

-6.40513e-15 4.27009e-15 0
4.27009e-15 -1.49453e-14 0
0 0 0

-3.20257e-15 6.40513e-15 0
6.40513e-15 -7.47265e-15 0
0 0 0

0 4.27009e-15 0
4.27009e-15 0 0
0 0 0

-9.6077e-15 2.13504e-15 0
2.13504e-15 -2.2418e-14 0
0 0 0

-9.6077e-15 -2.13504e-15 0
-2.13504e-15 -2.2418e-14 0
0 0 0

-1.60128e-15 -1.06752e-15 0
-1.06752e-15 -3.73633e-15 0
0 0 0

-6.40513e-15 -2.13504e-15 0
-2.13504e-15 -1.49453e-14 0
0 0 0

4.00321e-16 -1.86816e-15 0
-1.86816e-15 9.34082e-16 0
0 0 0

-1.44115e-14 -1.06752e-15 0
-1.06752e-15 -3.36269e-14 0
0 0 0

4.80385e-15 -1.06752e-15 0
-1.06752e-15 1.1209e-14 0
0 0 0

-3.20257e-15 2.13504e-15 0
2.13504e-15 -7.47265e-15 0
0 0 0

8.00642e-16 -1.60128e-15 0
-1.60128e-15 1.86816e-15 0
0 0 0

3.20257e-15 0 0
0 7.47265e-15 0
0 0 0

9.6077e-15 0 0
0 2.2418e-14 0
0 0 0

6.40513e-15 0 0
0 1.49453e-14 0
0 0 0

-1.20096e-14 -1.60128e-15 0
-1.60128e-15 -2.80225e-14 0
0 0 0

-1.28103e-14 -4.27009e-15 0
-4.27009e-15 -2.98906e-14 0
0 0 0

-1.28103e-14 0 0
0 -2.98906e-14 0
0 0 0

-6.40513e-15 0 0
0 -1.49453e-14 0
0 0 0

-7.20577e-15 -2.66881e-15 0
-2.66881e-15 -1.68135e-14 0
0 0 0

-3.20257e-15 0 0
0 -7.47265e-15 0
0 0 0

-3.20257e-15 2.13504e-15 0
2.13504e-15 -7.47265e-15 0
0 0 0

9.6077e-15 2.13504e-15 0
2.13504e-15 2.2418e-14 0
0 0 0

-2.0016e-15 2.93569e-15 0
2.93569e-15 -4.67041e-15 0
0 0 0

1.60128e-15 1.06752e-15 0
1.06752e-15 3.73633e-15 0
0 0 0

-4.80385e-15 5.33761e-15 0
5.33761e-15 -1.1209e-14 0
0 0 0

0 0 0
0 0 0
0 0 0

-2.40192e-15 5.33761e-16 0
5.33761e-16 -5.60449e-15 0
0 0 0

4.80385e-15 -1.06752e-15 0
-1.06752e-15 1.1209e-14 0
0 0 0

3.20257e-15 2.13504e-15 0
2.13504e-15 7.47265e-15 0
0 0 0

3.20257e-15 -2.13504e-15 0
-2.13504e-15 7.47265e-15 0
0 0 0

-1.28103e-14 -2.13504e-15 0
-2.13504e-15 -2.98906e-14 0
0 0 0

-1.1209e-14 -3.20257e-15 0
-3.20257e-15 -2.61543e-14 0
0 0 0

-8.00642e-15 3.20257e-15 0
3.20257e-15 -1.86816e-14 0
0 0 0

-6.40513e-15 -2.13504e-15 0
-2.13504e-15 -1.49453e-14 0
0 0 0

-4.00321e-15 -5.33761e-16 0
-5.33761e-16 -9.34082e-15 0
0 0 0

-1.60128e-15 1.06752e-15 0
1.06752e-15 -3.73633e-15 0
0 0 0

1.60128e-14 2.13504e-15 0
2.13504e-15 3.73633e-14 0
0 0 0

1.92154e-14 0 0
0 4.48359e-14 0
0 0 0

-3.20257e-15 2.13504e-15 0
2.13504e-15 -7.47265e-15 0
0 0 0

-4.80385e-15 -3.20257e-15 0
-3.20257e-15 -1.1209e-14 0
0 0 0

-6.40513e-15 4.27009e-15 0
4.27009e-15 -1.49453e-14 0
0 0 0

3.20257e-15 0 0
0 7.47265e-15 0
0 0 0

-4.39734e-15 -6.4637e-16 0
-6.4637e-16 -9.50973e-15 0
0 0 0

4.18893e-16 -3.31517e-15 0
-3.31517e-15 3.22959e-15 0
0 0 0

2.80844e-15 1.79722e-15 0
1.79722e-15 7.30374e-15 0
0 0 0

2.02018e-15 -3.37826e-16 0
-3.37826e-16 6.96592e-15 0
0 0 0

TENSORS velocity_gradient double
0 0 0
1.04083e-16 -6.93889e-18 0
0 0 0

0 0 0
-8.32667e-17 2.77556e-17 0
0 0 0

0 0 0
5.55112e-17 -5.55112e-17 0
0 0 0

0 0 0
-1.11022e-16 0 0
0 0 0

0 0 0
-1.59595e-16 6.245e-17 0
0 0 0

0 0 0
-8.32667e-17 1.38778e-16 0
0 0 0

0 0 0
-1.11022e-16 -5.55112e-17 0
0 0 0

0 0 0
-1.11022e-16 1.11022e-16 0
0 0 0

0 0 0
-1.59595e-16 -1.59595e-16 0
0 0 0

0 0 0
-2.22045e-16 0 0
0 0 0

0 0 0
-1.38778e-16 8.32667e-17 0
0 0 0

0 0 0
-2.77556e-16 -5.55112e-17 0
0 0 0

0 0 0
-1.94289e-16 -8.32667e-17 0
0 0 0

0 0 0
-2.22045e-16 -5.55112e-17 0
0 0 0

0 0 0
-1.66533e-16 1.66533e-16 0
0 0 0

0 0 0
-1.11022e-16 1.11022e-16 0
0 0 0

0 0 0
8.32667e-17 -1.38778e-16 0
0 0 0

0 0 0
1.11022e-16 -1.11022e-16 0
0 0 0

0 0 0
1.66533e-16 -5.55112e-17 0
0 0 0

0 0 0
1.11022e-16 0 0
0 0 0

0 0 0
5.55112e-17 -1.66533e-16 0
0 0 0

0 0 0
-5.55112e-17 -1.66533e-16 0
0 0 0

0 0 0
-2.77556e-17 -2.77556e-17 0
0 0 0

0 0 0
-5.55112e-17 -1.11022e-16 0
0 0 0

0 0 0
-4.85723e-17 6.93889e-18 0
0 0 0

0 0 0
-2.77556e-17 -2.498e-16 0
0 0 0

0 0 0
-2.77556e-17 8.32667e-17 0
0 0 0

0 0 0
5.55112e-17 -5.55112e-17 0
0 0 0

0 0 0
-4.16334e-17 1.38778e-17 0
0 0 0

0 0 0
0 5.55112e-17 0
0 0 0

0 0 0
0 1.66533e-16 0
0 0 0

0 0 0
0 1.11022e-16 0
0 0 0

0 0 0
-4.16334e-17 -2.08167e-16 0
0 0 0

0 0 0
-1.11022e-16 -2.22045e-16 0
0 0 0

0 0 0
0 -2.22045e-16 0
0 0 0

0 0 0
0 -1.11022e-16 0
0 0 0

0 0 0
-6.93889e-17 -1.249e-16 0
0 0 0

0 0 0
0 -5.55112e-17 0
0 0 0

0 0 0
5.55112e-17 -5.55112e-17 0
0 0 0

0 0 0
5.55112e-17 1.66533e-16 0
0 0 0

0 0 0
7.63278e-17 -3.46945e-17 0
0 0 0

0 0 0
2.77556e-17 2.77556e-17 0
0 0 0

0 0 0
1.38778e-16 -8.32667e-17 0
0 0 0

0 0 0
0 0 0
0 0 0

0 0 0
1.38778e-17 -4.16334e-17 0
0 0 0

0 0 0
-2.77556e-17 8.32667e-17 0
0 0 0

0 0 0
5.55112e-17 5.55112e-17 0
0 0 0

0 0 0
-5.55112e-17 5.55112e-17 0
0 0 0

0 0 0
-5.55112e-17 -2.22045e-16 0
0 0 0

0 0 0
-8.32667e-17 -1.94289e-16 0
0 0 0

0 0 0
8.32667e-17 -1.38778e-16 0
0 0 0

0 0 0
-5.55112e-17 -1.11022e-16 0
0 0 0

0 0 0
-1.38778e-17 -6.93889e-17 0
0 0 0

0 0 0
2.77556e-17 -2.77556e-17 0
0 0 0

0 0 0
5.55112e-17 2.77556e-16 0
0 0 0

0 0 0
0 3.33067e-16 0
0 0 0

0 0 0
5.55112e-17 -5.55112e-17 0
0 0 0

0 0 0
-8.32667e-17 -8.32667e-17 0
0 0 0

0 0 0
1.11022e-16 -1.11022e-16 0
0 0 0

0 0 0
0 5.55112e-17 0
0 0 0

-2.92782e-18 -2.92782e-18 0
-1.38778e-17 -6.93889e-17 0
0 0 0

-8.78347e-18 -2.92782e-18 0
-8.32667e-17 2.77556e-17 0
0 0 0

-2.92782e-18 -8.78347e-18 0
5.55112e-17 5.55112e-17 0
0 0 0

-8.78347e-18 -8.78347e-18 0
0 5.55112e-17 0
0 0 0

SCALARS active double 1
LOOKUP_TABLE default
1
1
1
1
1
1
1
1
1
1
1
1
1
1
1
1
1
1
1
1
1
1
1
1
1
1
1
1
1
1
1
1
1
1
1
1
1
1
1
1
1
1
1
1
1
1
1
1
1
1
1
1
1
1
1
1
1
1
1
1
1
1
1
1
SCALARS extent double 1
LOOKUP_TABLE default
0.0125
0.0125
0.0125
0.0125
0.0125
0.0125
0.0125
0.0125
0.0125
0.0125
0.0125
0.0125
0.0125
0.0125
0.0125
0.0125
0.0125
0.0125
0.0125
0.0125
0.0125
0.0125
0.0125
0.0125
0.0125
0.0125
0.0125
0.0125
0.0125
0.0125
0.0125
0.0125
0.0125
0.0125
0.0125
0.0125
0.0125
0.0125
0.0125
0.0125
0.0125
0.0125
0.0125
0.0125
0.0125
0.0125
0.0125
0.0125
0.0125
0.0125
0.0125
0.0125
0.0125
0.0125
0.0125
0.0125
0.0125
0.0125
0.0125
0.0125
0.0125
0.0125
0.0125
0.0125
SCALARS pressure double 1
LOOKUP_TABLE default
6.67201e-16
-2.66881e-15
5.33761e-15
-0
-6.00481e-15
-1.3344e-14
5.33761e-15
-1.06752e-14
1.53456e-14
-0
-8.00642e-15
5.33761e-15
8.00642e-15
5.33761e-15
-1.60128e-14
-1.06752e-14
1.3344e-14
1.06752e-14
5.33761e-15
-0
1.60128e-14
1.60128e-14
2.66881e-15
1.06752e-14
-6.67201e-16
2.40192e-14
-8.00642e-15
5.33761e-15
-1.3344e-15
-5.33761e-15
-1.60128e-14
-1.06752e-14
2.0016e-14
2.13504e-14
2.13504e-14
1.06752e-14
1.20096e-14
5.33761e-15
5.33761e-15
-1.60128e-14
3.33601e-15
-2.66881e-15
8.00642e-15
-0
4.00321e-15
-8.00642e-15
-5.33761e-15
-5.33761e-15
2.13504e-14
1.86816e-14
1.3344e-14
1.06752e-14
6.67201e-15
2.66881e-15
-2.66881e-14
-3.20257e-14
5.33761e-15
8.00642e-15
1.06752e-14
-5.33761e-15
6.95353e-15
-1.82424e-15
-5.05609e-15
-4.49305e-15
SCALARS density double 1
LOOKUP_TABLE default
1000
1000
1000
1000
1000
1000
1000
1000
1000
1000
1000
1000
1000
1000
1000
1000
1000
1000
1000
1000
1000
1000
1000
1000
1000
1000
1000
1000
1000
1000
1000
1000
1000
1000
1000
1000
1000
1000
1000
1000
1000
1000
1000
1000
1000
1000
1000
1000
1000
1000
1000
1000
1000
1000
1000
1000
1000
1000
1000
1000
1000
1000
1000
1000
