# vtk DataFile Version 3.0
Frame: 26, Time: 0.45
ASCII
DATASET UNSTRUCTURED_GRID
POINTS 64 double
0.791105 0.426916 0 
0.810187 0.409614 0 
0.773418 0.407755 0 
0.792627 0.389907 0 
0.829157 0.392703 0 
0.847528 0.374916 0 
0.8114 0.373395 0 
0.830184 0.355675 0 
0.864378 0.356575 0 
0.881586 0.339057 0 
0.846927 0.336585 0 
0.864686 0.319584 0 
0.900154 0.322201 0 
0.918902 0.304773 0 
0.883143 0.303237 0 
0.901192 0.284895 0 
0.756963 0.388433 0 
0.775956 0.371507 0 
0.73919 0.370037 0 
0.758378 0.352609 0 
0.794555 0.354553 0 
0.812081 0.33738 0 
0.775382 0.335194 0 
0.793538 0.31833 0 
0.828434 0.318018 0 
0.845176 0.30114 0 
0.810588 0.299612 0 
0.827815 0.281359 0 
0.864235 0.285158 0 
0.882322 0.267376 0 
0.846369 0.265074 0 
0.86532 0.248119 0 
0.721711 0.351679 0 
0.738927 0.333736 0 
0.70304 0.333613 0 
0.721352 0.315239 0 
0.757511 0.316641 0 
0.775536 0.29864 0 
0.740885 0.297112 0 
0.757515 0.279742 0 
0.793188 0.280406 0 
0.810877 0.262297 0 
0.775065 0.261744 0 
0.793173 0.243202 0 
0.828342 0.244827 0 
0.847108 0.227928 0 
0.810128 0.22568 0 
0.829161 0.208655 0 
0.685929 0.314657 0 
0.704509 0.297435 0 
0.667429 0.29634 0 
0.685354 0.278979 0 
0.72243 0.279486 0 
0.73931 0.261374 0 
0.70303 0.262116 0 
0.72084 0.243951 0 
0.757886 0.243357 0 
0.775697 0.224157 0 
0.738146 0.226738 0 
0.755877 0.207354 0 
0.79431 0.205375 0 
0.813219 0.188706 0 
0.774826 0.188795 0 
0.792984 0.17125 0 
CELLS 64 128
1 0
1 1
1 2
1 3
1 4
1 5
1 6
1 7
1 8
1 9
1 10
1 11
1 12
1 13
1 14
1 15
1 16
1 17
1 18
1 19
1 20
1 21
1 22
1 23
1 24
1 25
1 26
1 27
1 28
1 29
1 30
1 31
1 32
1 33
1 34
1 35
1 36
1 37
1 38
1 39
1 40
1 41
1 42
1 43
1 44
1 45
1 46
1 47
1 48
1 49
1 50
1 51
1 52
1 53
1 54
1 55
1 56
1 57
1 58
1 59
1 60
1 61
1 62
1 63
CELL_TYPES 64
1
1
1
1
1
1
1
1
1
1
1
1
1
1
1
1
1
1
1
1
1
1
1
1
1
1
1
1
1
1
1
1
1
1
1
1
1
1
1
1
1
1
1
1
1
1
1
1
1
1
1
1
1
1
1
1
1
1
1
1
1
1
1
1
POINT_DATA 64
VECTORS displacement double
0.278605 -0.185584 0 
0.297687 -0.227886 0 
0.235918 -0.204745 0 
0.255127 -0.247593 0 
0.316657 -0.269797 0 
0.335028 -0.312584 0 
0.2739 -0.289105 0 
0.292684 -0.331825 0 
0.351878 -0.355925 0 
0.369086 -0.398443 0 
0.309427 -0.375915 0 
0.327186 -0.417916 0 
0.387654 -0.440299 0 
0.406402 -0.482727 0 
0.345643 -0.459263 0 
0.363692 -0.502605 0 
0.194463 -0.224067 0 
0.213456 -0.265993 0 
0.15169 -0.242463 0 
0.170878 -0.284891 0 
0.232055 -0.307947 0 
0.249581 -0.35012 0 
0.187882 -0.327306 0 
0.206038 -0.36917 0 
0.265934 -0.394482 0 
0.282676 -0.43636 0 
0.223088 -0.412888 0 
0.240315 -0.456141 0 
0.301735 -0.477342 0 
0.319822 -0.520124 0 
0.258869 -0.497426 0 
0.27782 -0.539381 0 
0.109211 -0.260821 0 
0.126427 -0.303764 0 
0.0655396 -0.278887 0 
0.0838518 -0.322261 0 
0.145011 -0.345859 0 
0.163036 -0.38886 0 
0.103385 -0.365388 0 
0.120015 -0.407758 0 
0.180688 -0.432094 0 
0.198377 -0.475203 0 
0.137565 -0.450756 0 
0.155673 -0.494298 0 
0.215842 -0.517673 0 
0.234608 -0.559572 0 
0.172628 -0.53682 0 
0.191661 -0.578845 0 
0.0234291 -0.297843 0 
0.0420093 -0.340065 0 
-0.0200709 -0.31616 0 
-0.00214574 -0.358521 0 
0.0599295 -0.383014 0 
0.0768098 -0.426126 0 
0.01553 -0.400384 0 
0.0333397 -0.443549 0 
0.0953862 -0.469143 0 
0.113197 -0.513343 0 
0.0506463 -0.485762 0 
0.0683772 -0.530146 0 
0.13181 -0.557125 0 
0.150719 -0.598794 0 
0.0873262 -0.573705 0 
0.105484 -0.61625 0 
VECTORS velocity double
4.45552 0.0927347 0 
4.05812 -0.424416 0 
3.59202 0.531667 0 
2.96853 -0.34362 0 
3.58759 -0.568286 0 
3.39789 -1.20737 0 
2.32532 -0.274673 0 
1.9561 -0.871229 0 
3.07494 -1.25029 0 
2.75228 -1.51448 0 
1.60066 -0.633207 0 
1.6062 -0.817122 0 
2.87333 -1.39181 0 
1.98312 -2.5492 0 
1.68731 -0.781877 0 
0.801638 -1.9932 0 
3.76119 0.671542 0 
3.08901 -0.518579 0 
3.31909 1.58153 0 
2.40786 0.0984186 0 
2.9001 -0.066375 0 
2.71097 -0.657505 0 
2.07352 0.0746942 0 
2.00285 -0.218551 0 
2.05419 -0.649679 0 
1.92437 -0.594898 0 
1.30502 -0.590392 0 
1.20644 -0.603909 0 
1.9331 -0.622251 0 
0.882553 -1.71974 0 
1.39046 -0.422404 0 
1.00159 -1.46665 0 
2.85474 1.73267 0 
1.78841 0.795441 0 
2.11269 2.381 0 
1.04345 1.41301 0 
1.42214 0.266968 0 
1.04424 0.390333 0 
1.00695 0.726373 0 
0.426576 0.806342 0 
1.00275 -0.0784888 0 
0.94499 -0.144678 0 
0.13449 0.0263208 0 
0.69072 0.149551 0 
0.598451 -0.00848992 0 
0.453954 -0.806011 0 
0.396186 0.594144 0 
-0.388786 -0.423996 0 
1.89903 2.47676 0 
1.01301 1.26951 0 
0.951071 3.02666 0 
0.335177 1.86905 0 
1.08657 0.899877 0 
0.664208 1.00557 0 
0.249318 1.81251 0 
-0.355818 1.68864 0 
0.494807 0.612692 0 
0.868789 0.441447 0 
-0.421562 0.982204 0 
-0.167202 0.933364 0 
0.933705 0.739225 0 
-0.21652 -0.964602 0 
-0.488265 1.78104 0 
-1.2565 0.286662 0 
SCALARS mass double 1
LOOKUP_TABLE default
0.625
0.625
0.625
0.625
0.625
0.625
0.625
0.625
0.625
0.625
0.625
0.625
0.625
0.625
0.625
0.625
0.625
0.625
0.625
0.625
0.625
0.625
0.625
0.625
0.625
0.625
0.625
0.625
0.625
0.625
0.625
0.625
0.625
0.625
0.625
0.625
0.625
0.625
0.625
0.625
0.625
0.625
0.625
0.625
0.625
0.625
0.625
0.625
0.625
0.625
0.625
0.625
0.625
0.625
0.625
0.625
0.625
0.625
0.625
0.625
0.625
0.625
0.625
0.625
SCALARS volume double 1
LOOKUP_TABLE default
0.000630832
0.000642296
0.000626829
0.000633455
0.000650021
0.000645061
0.000608142
0.00062131
0.000624315
0.000623373
0.00063155
0.000618545
0.000644719
0.000639091
0.000607269
0.000644759
0.000623891
0.000625487
0.000634449
0.00063684
0.0006281
0.000650717
0.000629658
0.000622147
0.000600639
0.000633839
0.000652633
0.000638482
0.000628694
0.000636788
0.000672251
0.000640201
0.000647307
0.000645715
0.000633756
0.000651165
0.00062104
0.000647714
0.000620394
0.000628111
0.00064195
0.000596869
0.000677337
0.000601735
0.000649759
0.000653228
0.000622595
0.000624046
0.000637129
0.000634789
0.000649001
0.000610821
0.000607096
0.000606831
0.000620102
0.00063503
0.000629299
0.000647339
0.000629303
0.000627027
0.000631491
0.00065853
0.000619746
0.000639052
VECTORS momentum double
2.7847 0.0579592 0 
2.53632 -0.26526 0 
2.24501 0.332292 0 
1.85533 -0.214763 0 
2.24224 -0.355179 0 
2.12368 -0.754605 0 
1.45332 -0.17167 0 
1.22256 -0.544518 0 
1.92184 -0.78143 0 
1.72017 -0.946552 0 
1.00041 -0.395754 0 
1.00387 -0.510702 0 
1.79583 -0.869881 0 
1.23945 -1.59325 0 
1.05457 -0.488673 0 
0.501024 -1.24575 0 
2.35074 0.419714 0 
1.93063 -0.324112 0 
2.07443 0.988455 0 
1.50491 0.0615116 0 
1.81256 -0.0414844 0 
1.69436 -0.41094 0 
1.29595 0.0466839 0 
1.25178 -0.136595 0 
1.28387 -0.406049 0 
1.20273 -0.371811 0 
0.815635 -0.368995 0 
0.754027 -0.377443 0 
1.20819 -0.388907 0 
0.551596 -1.07484 0 
0.869039 -0.264003 0 
0.625991 -0.916655 0 
1.78421 1.08292 0 
1.11775 0.497151 0 
1.32043 1.48812 0 
0.652157 0.883129 0 
0.88884 0.166855 0 
0.652652 0.243958 0 
0.629343 0.453983 0 
0.26661 0.503963 0 
0.626716 -0.0490555 0 
0.590619 -0.0904236 0 
0.0840562 0.0164505 0 
0.4317 0.0934696 0 
0.374032 -0.0053062 0 
0.283721 -0.503757 0 
0.247616 0.37134 0 
-0.242991 -0.264997 0 
1.18689 1.54798 0 
0.633134 0.793443 0 
0.59442 1.89166 0 
0.209486 1.16816 0 
0.679105 0.562423 0 
0.41513 0.628479 0 
0.155823 1.13282 0 
-0.222387 1.0554 0 
0.309254 0.382932 0 
0.542993 0.275905 0 
-0.263476 0.613877 0 
-0.104502 0.583352 0 
0.583566 0.462016 0 
-0.135325 -0.602876 0 
-0.305165 1.11315 0 
-0.785309 0.179164 0 
VECTORS body_force double
0 -9.81 0 
0 -9.81 0 
0 -9.81 0 
0 -9.81 0 
0 -9.81 0 
0 -9.81 0 
0 -9.81 0 
0 -9.81 0 
0 -9.81 0 
0 -9.81 0 
0 -9.81 0 
0 -9.81 0 
0 -9.81 0 
0 -9.81 0 
0 -9.81 0 
0 -9.81 0 
0 -9.81 0 
0 -9.81 0 
0 -9.81 0 
0 -9.81 0 
0 -9.81 0 
0 -9.81 0 
0 -9.81 0 
0 -9.81 0 
0 -9.81 0 
0 -9.81 0 
0 -9.81 0 
0 -9.81 0 
0 -9.81 0 
0 -9.81 0 
0 -9.81 0 
0 -9.81 0 
0 -9.81 0 
0 -9.81 0 
0 -9.81 0 
0 -9.81 0 
0 -9.81 0 
0 -9.81 0 
0 -9.81 0 
0 -9.81 0 
0 -9.81 0 
0 -9.81 0 
0 -9.81 0 
0 -9.81 0 
0 -9.81 0 
0 -9.81 0 
0 -9.81 0 
0 -9.81 0 
0 -9.81 0 
0 -9.81 0 
0 -9.81 0 
0 -9.81 0 
0 -9.81 0 
0 -9.81 0 
0 -9.81 0 
0 -9.81 0 
0 -9.81 0 
0 -9.81 0 
0 -9.81 0 
0 -9.81 0 
0 -9.81 0 
0 -9.81 0 
0 -9.81 0 
0 -9.81 0 
TENSORS cauchy_stress double
1290.79 1124.26 0
1124.26 495.241 0
0 0 0

774.107 -511.235 0
-511.235 4475.32 0
0 0 0

3012.81 161.707 0
161.707 -2451 0
0 0 0

-2949.48 -1237.68 0
-1237.68 5533.62 0
0 0 0

3541.88 1983.75 0
1983.75 4006.79 0
0 0 0

1086.65 1479.37 0
1479.37 4988.84 0
0 0 0

-624.737 -112.008 0
-112.008 -4633.66 0
0 0 0

-3866.77 -2277.33 0
-2277.33 2728.12 0
0 0 0

-2942.59 1914.85 0
1914.85 2731.72 0
0 0 0

-519.533 2036.43 0
2036.43 18.2907 0
0 0 0

-2273.57 2224.59 0
2224.59 4278.61 0
0 0 0

-705.867 2189.3 0
2189.3 -1290.54 0
0 0 0

725.746 378.578 0
378.578 5247.86 0
0 0 0

1336.55 297.76 0
297.76 2951.06 0
0 0 0

-4688.47 1689.83 0
1689.83 -846.159 0
0 0 0

5378.59 449.116 0
449.116 606.925 0
0 0 0

2157.36 2915.67 0
2915.67 -2498.76 0
0 0 0

182.789 -987.144 0
-987.144 -32.9116 0
0 0 0

5451.74 -538.908 0
-538.908 -2566.02 0
0 0 0

2513.98 3669.73 0
3669.73 1095.07 0
0 0 0

1601.18 3734.96 0
3734.96 -649.595 0
0 0 0

545.646 3703.87 0
3703.87 7208.72 0
0 0 0

-2311.29 644.132 0
644.132 3739.11 0
0 0 0

-3561.74 2450.99 0
2450.99 2681.79 0
0 0 0

-8921.75 1399.88 0
1399.88 1275.95 0
0 0 0

4421.85 4560.43 0
4560.43 -1721.34 0
0 0 0

-380.506 1056 0
1056 8700.36 0
0 0 0

737.007 1463.49 0
1463.49 3367.17 0
0 0 0

2552.73 2401.32 0
2401.32 -1419.34 0
0 0 0

4045.55 -1122.37 0
-1122.37 -452.236 0
0 0 0

5535.34 3257.9 0
3257.9 8480.09 0
0 0 0

1817.03 705.388 0
705.388 2804.3 0
0 0 0

6262.5 793.203 0
793.203 481.518 0
0 0 0

1393.13 2014.88 0
2014.88 4877.34 0
0 0 0

5384.06 -610.554 0
-610.554 -2708.48 0
0 0 0

5304.79 -3753.51 0
-3753.51 2582.11 0
0 0 0

1913.89 58.5054 0
58.5054 -3136.32 0
0 0 0

4174.37 1022.15 0
1022.15 2690.65 0
0 0 0

-2532.51 852.759 0
852.759 1110.11 0
0 0 0

-985.17 6407.64 0
6407.64 1940.12 0
0 0 0

1904.34 482.567 0
482.567 3241.46 0
0 0 0

-7830.45 245.267 0
245.267 -1026.14 0
0 0 0

4200.3 -1826.54 0
-1826.54 11264.7 0
0 0 0

-8569.44 3842.03 0
3842.03 1274.19 0
0 0 0

4178.11 2918.86 0
2918.86 3292.9 0
0 0 0

3582.66 5024.94 0
5024.94 4912.31 0
0 0 0

1191.73 1667.08 0
1667.08 -1933.25 0
0 0 0

2061.75 -2664.36 0
-2664.36 -2355.59 0
0 0 0

6124.12 1336.26 0
1336.26 -2427.97 0
0 0 0

3920.21 1109.48 0
1109.48 -931.549 0
0 0 0

4013.09 -626.93 0
-626.93 3233.7 0
0 0 0

-4924.29 3422.57 0
3422.57 511.188 0
0 0 0

-1723.93 1966.42 0
1966.42 -3865.5 0
0 0 0

-1125.38 -491.253 0
-491.253 -4547.88 0
0 0 0

-645.053 1887.56 0
1887.56 -867.904 0
0 0 0

2392.15 649.415 0
649.415 669.6 0
0 0 0

897.148 -2053.31 0
-2053.31 421.136 0
0 0 0

3488.2 -911.278 0
-911.278 3265.31 0
0 0 0

-895.284 3010.27 0
3010.27 2214.61 0
0 0 0

1347.94 -3360.54 0
-3360.54 -725.256 0
0 0 0

2253.84 -1660.9 0
-1660.9 -266.836 0
0 0 0

4210.46 2900.23 0
2900.23 5839.12 0
0 0 0

-380.548 -1215.69 0
-1215.69 -1242.83 0
0 0 0

4922.5 4223.31 0
4223.31 -646.566 0
0 0 0

TENSORS velocity_gradient double
0.548243 15.202 0
-12.6665 1.40714 0
0 0 0

-4.02383 15.2686 0
-14.0622 2.51948 0
0 0 0

0.000375411 14.7103 0
-14.0058 0.205131 0
0 0 0

-0.0442829 20.3352 0
-15.5529 2.84169 0
0 0 0

-3.27102 18.9536 0
-13.7417 1.35908 0
0 0 0

-2.16566 18.0332 0
-12.1251 -0.483422 0
0 0 0

-2.36657 19.7624 0
-11.8058 3.09035 0
0 0 0

-1.55564 18.8732 0
-10.0701 1.18714 0
0 0 0

4.38204 15.9876 0
-12.71 -1.69112 0
0 0 0

4.67295 16.2706 0
-13.0332 -0.523571 0
0 0 0

0.715163 14.3659 0
-9.85986 -2.79893 0
0 0 0

2.83923 14.7336 0
-14.5528 -1.79731 0
0 0 0

0.279953 17.387 0
-15.8523 0.502059 0
0 0 0

-1.77501 14.7089 0
-16.7646 -1.00859 0
0 0 0

1.37957 16.4956 0
-15.7572 -0.199097 0
0 0 0

-2.48813 18.5752 0
-15.2407 0.861829 0
0 0 0

-0.194406 20.9755 0
-17.1802 -0.787721 0
0 0 0

0.269182 20.6092 0
-17.4651 1.16999 0
0 0 0

0.00184848 21.6724 0
-24.3527 -2.30596 0
0 0 0

0.814623 22.4914 0
-19.3291 -1.02909 0
0 0 0

0.628407 20.3962 0
-19.0687 2.39059 0
0 0 0

0.348644 18.8733 0
-9.57336 -3.21237 0
0 0 0

2.5258 23.568 0
-19.1914 -2.48733 0
0 0 0

4.62663 21.2261 0
-18.6747 -3.06332 0
0 0 0

2.90013 16.6652 0
-9.78446 -3.02968 0
0 0 0

4.82346 14.6238 0
-10.2743 -2.32778 0
0 0 0

4.94709 16.9373 0
-10.4259 -4.88908 0
0 0 0

5.33206 14.9652 0
-12.7092 -3.92139 0
0 0 0

0.194152 15.6753 0
-16.6634 0.0735513 0
0 0 0

-0.726664 16.6442 0
-17.3243 0.768928 0
0 0 0

4.5886 15.0332 0
-15.3799 -1.20678 0
0 0 0

-0.49697 15.0449 0
-17.4402 -2.96283 0
0 0 0

0.72207 24.094 0
-25.3551 -1.37126 0
0 0 0

0.572034 26.2365 0
-24.2471 -0.499973 0
0 0 0

0.379216 25.4033 0
-20.9726 2.56516 0
0 0 0

0.156409 25.8608 0
-22.4204 1.15146 0
0 0 0

4.81503 25.7459 0
-18.696 -1.93663 0
0 0 0

6.63145 17.9139 0
-17.7103 -3.9886 0
0 0 0

0.0668815 17.0376 0
-20.6472 -0.877796 0
0 0 0

6.73441 14.4285 0
-15.6496 -2.79596 0
0 0 0

6.74836 14.8311 0
-15.7937 -6.95406 0
0 0 0

5.29982 14.9376 0
-15.6089 -6.39709 0
0 0 0

6.53194 14.6296 0
-13.5589 -4.87307 0
0 0 0

5.92273 12.0422 0
-12.3835 -3.49487 0
0 0 0

4.58387 15.8887 0
-17.3615 -3.36731 0
0 0 0

3.06354 17.79 0
-16.9409 -3.50048 0
0 0 0

2.22084 13.7638 0
-17.4752 -3.32667 0
0 0 0

0.120281 16.1801 0
-17.4835 -3.31714 0
0 0 0

-0.623867 24.8127 0
-17.5469 2.14792 0
0 0 0

-0.222296 17.58 0
-20.1043 2.81959 0
0 0 0

-1.30318 15.4139 0
-18.4407 2.5988 0
0 0 0

-1.82507 15.7739 0
-18.8534 3.07149 0
0 0 0

0.673545 15.426 0
-18.7011 1.07846 0
0 0 0

1.34801 14.777 0
-16.7588 -0.790324 0
0 0 0

0.257208 16.0231 0
-17.5049 2.91692 0
0 0 0

2.26301 11.2419 0
-14.9011 -1.53508 0
0 0 0

5.90366 9.65597 0
-12.3897 -4.26982 0
0 0 0

4.60751 10.8745 0
-12.8107 -3.87408 0
0 0 0

3.47652 9.99778 0
-13.2231 -3.25529 0
0 0 0

3.48452 9.56958 0
-13.1332 -4.28373 0
0 0 0

3.14243 12.6977 0
-13.4608 -3.09526 0
0 0 0

2.08517 15.1402 0
-18.0026 1.82691 0
0 0 0

0.696421 13.9058 0
-15.2876 -2.89106 0
0 0 0

-2.65066 17.483 0
-18.1269 0.143539 0
0 0 0

SCALARS active double 1
LOOKUP_TABLE default
1
1
1
1
1
1
1
1
1
1
1
1
1
1
1
1
1
1
1
1
1
1
1
1
1
1
1
1
1
1
1
1
1
1
1
1
1
1
1
1
1
1
1
1
1
1
1
1
1
1
1
1
1
1
1
1
1
1
1
1
1
1
1
1
SCALARS extent double 1
LOOKUP_TABLE default
0.0125
0.0125
0.0125
0.0125
0.0125
0.0125
0.0125
0.0125
0.0125
0.0125
0.0125
0.0125
0.0125
0.0125
0.0125
0.0125
0.0125
0.0125
0.0125
0.0125
0.0125
0.0125
0.0125
0.0125
0.0125
0.0125
0.0125
0.0125
0.0125
0.0125
0.0125
0.0125
0.0125
0.0125
0.0125
0.0125
0.0125
0.0125
0.0125
0.0125
0.0125
0.0125
0.0125
0.0125
0.0125
0.0125
0.0125
0.0125
0.0125
0.0125
0.0125
0.0125
0.0125
0.0125
0.0125
0.0125
0.0125
0.0125
0.0125
0.0125
0.0125
0.0125
0.0125
0.0125
SCALARS pressure double 1
LOOKUP_TABLE default
-893.015
-2624.71
-280.906
-1292.07
-3774.33
-3037.75
2629.2
569.323
105.432
250.621
-1002.52
998.205
-2986.8
-2143.8
2767.32
-2992.76
170.702
-74.9388
-1442.86
-1804.52
-475.79
-3877.18
-713.911
439.972
3822.9
-1350.26
-4159.93
-2052.09
-566.694
-1796.66
-7007.72
-2310.67
-3372.01
-3135.24
-1337.79
-3943.45
611.215
-3432.51
711.196
-477.475
-2572.9
4428.3
-7732.49
3647.63
-3735.5
-4247.49
370.758
146.923
-1848.08
-1494.33
-3623.39
2206.55
2794.71
2836.63
756.479
-1530.88
-659.142
-3376.76
-659.663
-311.341
-993.502
-5024.79
811.687
-2137.97
SCALARS density double 1
LOOKUP_TABLE default
990.756
973.072
997.083
986.652
961.507
968.901
1027.72
1005.94
1001.1
1002.61
989.628
1010.44
969.415
977.951
1029.2
969.355
1001.78
999.221
985.106
981.408
995.064
960.479
992.603
1004.59
1040.56
986.055
957.659
978.884
994.124
981.488
929.712
976.256
965.539
967.919
986.183
959.818
1006.38
964.932
1007.42
995.047
973.597
1047.13
922.731
1038.66
961.896
956.788
1003.86
1001.53
980.964
984.579
963.018
1023.21
1029.49
1029.94
1007.9
984.205
993.168
965.491
993.163
996.767
989.721
949.084
1008.48
978.011
