# vtk DataFile Version 3.0
Frame: 37, Time: 0.634
ASCII
DATASET UNSTRUCTURED_GRID
POINTS 64 double
0.0838619 0.0358679 0 
0.08269 0.0561211 0 
0.111028 0.0366548 0 
0.108358 0.0571966 0 
0.0785183 0.0785194 0 
0.076486 0.101762 0 
0.104894 0.0792267 0 
0.102689 0.102378 0 
0.0720516 0.124797 0 
0.0684787 0.149433 0 
0.099746 0.126392 0 
0.0953653 0.149778 0 
0.0701002 0.174273 0 
0.0685327 0.19772 0 
0.0960729 0.174818 0 
0.0940673 0.19927 0 
0.139135 0.0389439 0 
0.134218 0.0601623 0 
0.166077 0.0394672 0 
0.160648 0.0604617 0 
0.129776 0.0822172 0 
0.126331 0.104742 0 
0.157305 0.0826801 0 
0.152971 0.104677 0 
0.123659 0.128726 0 
0.119584 0.151926 0 
0.15055 0.128614 0 
0.147215 0.151799 0 
0.119798 0.176083 0 
0.119353 0.202913 0 
0.146052 0.175975 0 
0.144316 0.201342 0 
0.193972 0.0389266 0 
0.185981 0.0607024 0 
0.223946 0.0422825 0 
0.213212 0.0637593 0 
0.182991 0.0838349 0 
0.178502 0.106123 0 
0.209559 0.0868199 0 
0.204108 0.109244 0 
0.176619 0.129532 0 
0.173966 0.153139 0 
0.201545 0.132607 0 
0.199208 0.156319 0 
0.171267 0.178548 0 
0.169343 0.203076 0 
0.196424 0.180625 0 
0.194684 0.205823 0 
0.249872 0.0456382 0 
0.238149 0.0678294 0 
0.274524 0.0485262 0 
0.263227 0.0718575 0 
0.235457 0.090481 0 
0.230111 0.112095 0 
0.262378 0.0945425 0 
0.256728 0.116878 0 
0.22656 0.134717 0 
0.224874 0.159147 0 
0.252229 0.140171 0 
0.251386 0.16463 0 
0.221037 0.183502 0 
0.218873 0.20786 0 
0.24661 0.188991 0 
0.244829 0.21322 0 
CELLS 64 128
1 0
1 1
1 2
1 3
1 4
1 5
1 6
1 7
1 8
1 9
1 10
1 11
1 12
1 13
1 14
1 15
1 16
1 17
1 18
1 19
1 20
1 21
1 22
1 23
1 24
1 25
1 26
1 27
1 28
1 29
1 30
1 31
1 32
1 33
1 34
1 35
1 36
1 37
1 38
1 39
1 40
1 41
1 42
1 43
1 44
1 45
1 46
1 47
1 48
1 49
1 50
1 51
1 52
1 53
1 54
1 55
1 56
1 57
1 58
1 59
1 60
1 61
1 62
1 63
CELL_TYPES 64
1
1
1
1
1
1
1
1
1
1
1
1
1
1
1
1
1
1
1
1
1
1
1
1
1
1
1
1
1
1
1
1
1
1
1
1
1
1
1
1
1
1
1
1
1
1
1
1
1
1
1
1
1
1
1
1
1
1
1
1
1
1
1
1
POINT_DATA 64
VECTORS displacement double
-0.328638 -0.376632 0 
-0.32981 -0.381379 0 
-0.326472 -0.375845 0 
-0.329142 -0.380303 0 
-0.333982 -0.383981 0 
-0.336014 -0.385738 0 
-0.332606 -0.383273 0 
-0.334811 -0.385122 0 
-0.340448 -0.387703 0 
-0.344021 -0.388067 0 
-0.337754 -0.386108 0 
-0.342135 -0.387722 0 
-0.3424 -0.388227 0 
-0.343967 -0.38978 0 
-0.341427 -0.387682 0 
-0.343433 -0.38823 0 
-0.323365 -0.373556 0 
-0.328282 -0.377338 0 
-0.321423 -0.373033 0 
-0.326852 -0.377038 0 
-0.332724 -0.380283 0 
-0.336169 -0.382758 0 
-0.330195 -0.37982 0 
-0.334529 -0.382823 0 
-0.338841 -0.383774 0 
-0.342916 -0.385574 0 
-0.33695 -0.383886 0 
-0.340285 -0.385701 0 
-0.342702 -0.386417 0 
-0.343147 -0.384587 0 
-0.341448 -0.386525 0 
-0.343184 -0.386158 0 
-0.318528 -0.373573 0 
-0.326519 -0.376798 0 
-0.313554 -0.370217 0 
-0.324288 -0.373741 0 
-0.329509 -0.378665 0 
-0.333998 -0.381377 0 
-0.327941 -0.37568 0 
-0.333392 -0.378256 0 
-0.335881 -0.382968 0 
-0.338534 -0.384361 0 
-0.335955 -0.379893 0 
-0.338292 -0.381181 0 
-0.341233 -0.383952 0 
-0.343157 -0.384424 0 
-0.341076 -0.381875 0 
-0.342816 -0.381677 0 
-0.312628 -0.366862 0 
-0.324351 -0.369671 0 
-0.312976 -0.363974 0 
-0.324273 -0.365643 0 
-0.327043 -0.372019 0 
-0.332389 -0.375405 0 
-0.325122 -0.367957 0 
-0.330772 -0.370622 0 
-0.33594 -0.377783 0 
-0.337626 -0.378353 0 
-0.335271 -0.372329 0 
-0.336114 -0.37287 0 
-0.341463 -0.378998 0 
-0.343627 -0.37964 0 
-0.34089 -0.373509 0 
-0.342671 -0.37428 0 
VECTORS velocity double
-0.454438 -0.233092 0 
-0.302196 0.821246 0 
-0.243959 0.50018 0 
-0.85914 0.84197 0 
-0.645708 0.0444325 0 
-0.536938 0.192617 0 
-0.631985 0.347208 0 
-0.770378 0.782753 0 
-0.457441 0.274761 0 
-0.942201 0.321777 0 
-0.850981 0.818725 0 
-0.869805 0.251369 0 
-0.331769 0.446582 0 
-0.604471 0.615341 0 
-0.784074 0.36894 0 
-0.818142 0.486847 0 
-0.318927 0.205257 0 
-0.812387 0.904336 0 
-0.944347 0.313407 0 
-0.917342 1.139 0 
-0.581527 0.422655 0 
-0.798159 0.600503 0 
-0.46589 0.654399 0 
-0.836033 0.575208 0 
-0.941723 0.716215 0 
-0.834182 0.421409 0 
-0.848127 0.787296 0 
-0.705615 0.54644 0 
-1.09877 0.553745 0 
-0.944706 0.555743 0 
-1.00208 0.766551 0 
-0.839416 0.494036 0 
-0.850089 0.0581084 0 
-1.37937 0.620757 0 
-0.896785 0.0278002 0 
-1.09884 0.82484 0 
-0.934687 0.479751 0 
-0.97779 0.637692 0 
-0.966959 0.413398 0 
-1.17136 0.728972 0 
-1.003 0.604833 0 
-0.464745 0.525948 0 
-1.37276 0.742897 0 
-0.755064 0.747711 0 
-1.0337 0.464007 0 
-0.982148 0.700194 0 
-1.13879 0.915856 0 
-1.12211 1.15306 0 
-0.937278 -0.106125 0 
-1.05746 0.900414 0 
-1.25926 0.150564 0 
-1.67031 0.571678 0 
-1.61444 0.1607 0 
-1.36216 0.427745 0 
-1.70588 0.58636 0 
-1.43403 0.688897 0 
-1.29063 0.694523 0 
-0.872354 0.468001 0 
-1.36343 0.844358 0 
-1.26395 0.945649 0 
-1.25843 0.894244 0 
-1.38655 0.806462 0 
-1.1564 1.1212 0 
-1.75639 1.23803 0 
SCALARS mass double 1
LOOKUP_TABLE default
0.625
0.625
0.625
0.625
0.625
0.625
0.625
0.625
0.625
0.625
0.625
0.625
0.625
0.625
0.625
0.625
0.625
0.625
0.625
0.625
0.625
0.625
0.625
0.625
0.625
0.625
0.625
0.625
0.625
0.625
0.625
0.625
0.625
0.625
0.625
0.625
0.625
0.625
0.625
0.625
0.625
0.625
0.625
0.625
0.625
0.625
0.625
0.625
0.625
0.625
0.625
0.625
0.625
0.625
0.625
0.625
0.625
0.625
0.625
0.625
0.625
0.625
0.625
0.625
SCALARS volume double 1
LOOKUP_TABLE default
0.000506866
0.000611426
0.000502966
0.00061054
0.000587984
0.000609518
0.000578932
0.000608031
0.000605089
0.000631049
0.000609298
0.000638037
0.000610821
0.000629249
0.000623795
0.000621675
0.000559003
0.00062001
0.000541249
0.000602578
0.000586674
0.000626477
0.000602181
0.000620926
0.000610749
0.000592089
0.000611498
0.000639082
0.000649127
0.000629916
0.000604876
0.000633689
0.000566028
0.000593486
0.000554969
0.000623679
0.000611538
0.000608183
0.000619216
0.000586654
0.0006225
0.000619914
0.000647601
0.000585534
0.000630094
0.000622855
0.000632838
0.000623402
0.000568595
0.000602141
0.000598438
0.000641697
0.000587174
0.000600106
0.000611323
0.00059469
0.000605658
0.000631175
0.000618219
0.000617086
0.000622826
0.000629287
0.00062469
0.000619056
VECTORS momentum double
-0.284024 -0.145682 0 
-0.188872 0.513279 0 
-0.152474 0.312613 0 
-0.536963 0.526231 0 
-0.403568 0.0277703 0 
-0.335586 0.120385 0 
-0.394991 0.217005 0 
-0.481487 0.48922 0 
-0.2859 0.171726 0 
-0.588875 0.201111 0 
-0.531863 0.511703 0 
-0.543628 0.157106 0 
-0.207355 0.279114 0 
-0.377795 0.384588 0 
-0.490046 0.230587 0 
-0.511339 0.304279 0 
-0.199329 0.128285 0 
-0.507742 0.56521 0 
-0.590217 0.19588 0 
-0.573339 0.711873 0 
-0.363454 0.264159 0 
-0.498849 0.375314 0 
-0.291181 0.409 0 
-0.522521 0.359505 0 
-0.588577 0.447634 0 
-0.521364 0.263381 0 
-0.53008 0.49206 0 
-0.441009 0.341525 0 
-0.686732 0.346091 0 
-0.590441 0.347339 0 
-0.626302 0.479094 0 
-0.524635 0.308772 0 
-0.531306 0.0363177 0 
-0.862105 0.387973 0 
-0.560491 0.0173751 0 
-0.686776 0.515525 0 
-0.58418 0.299844 0 
-0.611119 0.398557 0 
-0.60435 0.258374 0 
-0.7321 0.455608 0 
-0.626877 0.378021 0 
-0.290466 0.328718 0 
-0.857976 0.46431 0 
-0.471915 0.46732 0 
-0.646063 0.290005 0 
-0.613843 0.437621 0 
-0.711742 0.57241 0 
-0.701317 0.720661 0 
-0.585799 -0.0663281 0 
-0.660912 0.562759 0 
-0.787038 0.0941023 0 
-1.04395 0.357299 0 
-1.00902 0.100438 0 
-0.851353 0.267341 0 
-1.06617 0.366475 0 
-0.896268 0.430561 0 
-0.806642 0.434077 0 
-0.545221 0.292501 0 
-0.852142 0.527724 0 
-0.789968 0.591031 0 
-0.78652 0.558903 0 
-0.866591 0.504039 0 
-0.72275 0.700752 0 
-1.09774 0.773772 0 
VECTORS body_force double
0 -9.81 0 
0 -9.81 0 
0 -9.81 0 
0 -9.81 0 
0 -9.81 0 
0 -9.81 0 
0 -9.81 0 
0 -9.81 0 
0 -9.81 0 
0 -9.81 0 
0 -9.81 0 
0 -9.81 0 
0 -9.81 0 
0 -9.81 0 
0 -9.81 0 
0 -9.81 0 
0 -9.81 0 
0 -9.81 0 
0 -9.81 0 
0 -9.81 0 
0 -9.81 0 
0 -9.81 0 
0 -9.81 0 
0 -9.81 0 
0 -9.81 0 
0 -9.81 0 
0 -9.81 0 
0 -9.81 0 
0 -9.81 0 
0 -9.81 0 
0 -9.81 0 
0 -9.81 0 
0 -9.81 0 
0 -9.81 0 
0 -9.81 0 
0 -9.81 0 
0 -9.81 0 
0 -9.81 0 
0 -9.81 0 
0 -9.81 0 
0 -9.81 0 
0 -9.81 0 
0 -9.81 0 
0 -9.81 0 
0 -9.81 0 
0 -9.81 0 
0 -9.81 0 
0 -9.81 0 
0 -9.81 0 
0 -9.81 0 
0 -9.81 0 
0 -9.81 0 
0 -9.81 0 
0 -9.81 0 
0 -9.81 0 
0 -9.81 0 
0 -9.81 0 
0 -9.81 0 
0 -9.81 0 
0 -9.81 0 
0 -9.81 0 
0 -9.81 0 
0 -9.81 0 
0 -9.81 0 
TENSORS cauchy_stress double
-1682.41 1058.88 0
1058.88 -38607 0
0 0 0

1745.3 -1810.37 0
-1810.37 -5967.91 0
0 0 0

-3960.71 -1803.22 0
-1803.22 -37814.1 0
0 0 0

3481.75 -1233.32 0
-1233.32 -7983.2 0
0 0 0

-1367.65 -416.242 0
-416.242 -10373.2 0
0 0 0

-1753.91 2123.68 0
2123.68 -3069.83 0
0 0 0

551.941 -3946.81 0
-3946.81 -15276.4 0
0 0 0

-639.766 -2060.33 0
-2060.33 -4653.67 0
0 0 0

266.082 -2097.31 0
-2097.31 -6492.36 0
0 0 0

1113 1359.16 0
1359.16 739.234 0
0 0 0

2669.53 -5303.26 0
-5303.26 -7562.67 0
0 0 0

5431.62 2235.36 0
2235.36 -1461.48 0
0 0 0

384.113 -720.396 0
-720.396 -4797.14 0
0 0 0

-757.44 877.632 0
877.632 2060.31 0
0 0 0

-1677.2 -2153.14 0
-2153.14 1306.2 0
0 0 0

2007.9 -396.877 0
-396.877 -3033.83 0
0 0 0

3847 -1366.56 0
-1366.56 -25308 0
0 0 0

3245.76 622.815 0
622.815 -4787.45 0
0 0 0

647.417 -3327.17 0
-3327.17 -28315 0
0 0 0

2998.37 -2067.54 0
-2067.54 -10024.1 0
0 0 0

896.695 826.385 0
826.385 -13066.2 0
0 0 0

3692.18 3243.33 0
3243.33 -3238.4 0
0 0 0

6202.21 -4987.68 0
-4987.68 -13355 0
0 0 0

3853.75 -2186.62 0
-2186.62 -5111.39 0
0 0 0

1356.23 -1203.5 0
-1203.5 -5791.97 0
0 0 0

-506.874 -750.796 0
-750.796 -9895.82 0
0 0 0

586.999 -2880.17 0
-2880.17 -4787.01 0
0 0 0

7951.42 -3586.49 0
-3586.49 -3666.7 0
0 0 0

4974.87 -786.554 0
-786.554 2309.23 0
0 0 0

1580.13 -1849.89 0
-1849.89 -73.4441 0
0 0 0

-1399.62 -2362.1 0
-2362.1 -4894.21 0
0 0 0

-667.12 1388.07 0
1388.07 3322.38 0
0 0 0

6659.75 -2359.02 0
-2359.02 -25719.2 0
0 0 0

-1220.84 -1248.85 0
-1248.85 -8728.68 0
0 0 0

1571.44 -2046.46 0
-2046.46 -24425.3 0
0 0 0

6026.4 -3274.52 0
-3274.52 -6433.41 0
0 0 0

4120.7 -2387.54 0
-2387.54 -8308.1 0
0 0 0

3050.03 883.071 0
883.071 -8295.5 0
0 0 0

6578.1 -3876.76 0
-3876.76 -8366.23 0
0 0 0

-1287.94 -225.106 0
-225.106 -10888.2 0
0 0 0

1555.44 1218.61 0
1218.61 -2326.14 0
0 0 0

3140.68 -46.7778 0
-46.7778 -4711.98 0
0 0 0

3077.83 330.672 0
330.672 3753.49 0
0 0 0

1435.63 -1439 0
-1439 -13979.5 0
0 0 0

-1343.59 1028.84 0
1028.84 2904.61 0
0 0 0

4397.48 1454.76 0
1454.76 -5058.63 0
0 0 0

-317.858 1527.86 0
1527.86 2714.64 0
0 0 0

-1947.76 496.285 0
496.285 1455.34 0
0 0 0

-4223.45 927.411 0
927.411 -13965.5 0
0 0 0

-2563.72 -1163.35 0
-1163.35 -4601.81 0
0 0 0

881.135 -1229.61 0
-1229.61 -9232.74 0
0 0 0

4435.74 -2885.24 0
-2885.24 634.405 0
0 0 0

176.281 1476.05 0
1476.05 -12182.2 0
0 0 0

2567.14 1292.61 0
1292.61 -10383.7 0
0 0 0

647.025 3028.51 0
3028.51 -4901.98 0
0 0 0

-1080.27 2461.37 0
2461.37 -8479.75 0
0 0 0

-2929.45 1926.35 0
1926.35 -3115.89 0
0 0 0

4375.07 2167.64 0
2167.64 -2484.41 0
0 0 0

-223.859 1833.54 0
1833.54 -1873.99 0
0 0 0

1436.21 2890.12 0
2890.12 -3886.94 0
0 0 0

-256.555 3074.78 0
3074.78 -413.436 0
0 0 0

1173.43 887.594 0
887.594 141.175 0
0 0 0

-131.285 -161.803 0
-161.803 35.8392 0
0 0 0

-1257.11 193.135 0
193.135 -580.585 0
0 0 0

TENSORS velocity_gradient double
0.125932 -2.55906 0
3.03355 8.6156 0
0 0 0

-1.23212 -2.85095 0
4.51211 0.302813 0
0 0 0

-4.00941 -3.86167 0
1.26942 10.3556 0
0 0 0

-3.58476 -2.70427 0
1.80795 0.760918 0
0 0 0

-1.56701 -2.81149 0
5.53814 -0.263127 0
0 0 0

-2.0006 -2.13777 0
6.0812 0.206019 0
0 0 0

-2.54209 -2.83575 0
2.20489 0.71797 0
0 0 0

-1.74162 -2.64832 0
3.12926 -0.563365 0
0 0 0

-2.90658 -1.53854 0
4.36922 0.952475 0
0 0 0

-3.88258 -0.493917 0
2.25148 1.75468 0
0 0 0

-1.95679 -2.49851 0
3.43513 -1.13144 0
0 0 0

-3.28525 -1.25668 0
2.41274 -0.231295 0
0 0 0

-4.40593 0.697425 0
0.534751 2.31327 0
0 0 0

-4.63869 0.218048 0
-0.730688 1.51883 0
0 0 0

-3.67189 0.212687 0
1.14482 0.68208 0
0 0 0

-4.39001 0.555875 0
-0.40004 1.06798 0
0 0 0

-3.9889 -3.60189 0
1.34738 11.3433 0
0 0 0

-3.45448 -1.54456 0
1.83347 0.988034 0
0 0 0

-6.82138 -3.15156 0
-1.8946 10.8815 0
0 0 0

-6.56384 -0.839604 0
-2.0707 1.53228 0
0 0 0

-2.46967 -1.74197 0
2.02633 0.949373 0
0 0 0

-1.58461 -2.07625 0
2.29123 -0.569585 0
0 0 0

-6.50485 -0.848503 0
-1.27308 1.41195 0
0 0 0

-5.19692 -1.21797 0
0.0512088 0.0358027 0
0 0 0

-1.04634 -2.16901 0
2.80081 -0.926334 0
0 0 0

-0.766579 -1.20487 0
3.19265 -0.259479 0
0 0 0

-3.10779 -1.39642 0
1.26328 -0.298015 0
0 0 0

-1.57529 -1.52315 0
2.52207 -0.0335042 0
0 0 0

-1.48526 -0.546324 0
3.06909 0.217694 0
0 0 0

-2.5365 0.0518455 0
2.67034 0.817091 0
0 0 0

-2.0037 -1.46736 0
3.12821 0.1615 0
0 0 0

-2.68377 -1.26682 0
3.0281 -0.0274759 0
0 0 0

-6.29577 -2.60809 0
-1.92705 9.50972 0
0 0 0

-6.56306 -0.771786 0
-2.06017 2.44932 0
0 0 0

-1.52452 -3.94884 0
-2.66141 7.68728 0
0 0 0

-3.2449 -2.07313 0
-2.60914 3.52411 0
0 0 0

-6.5017 -0.779742 0
-1.23047 2.34173 0
0 0 0

-6.03055 0.443541 0
-0.450025 0.687798 0
0 0 0

-5.38717 -1.73515 0
-1.63754 3.37082 0
0 0 0

-6.33451 2.17159 0
-0.443777 1.6478 0
0 0 0

-4.35383 0.384033 0
0.315028 0.530157 0
0 0 0

-3.07762 -1.54241 0
1.33721 1.69118 0
0 0 0

-5.17144 2.03217 0
0.957421 1.51293 0
0 0 0

-4.02548 -2.64905 0
1.99357 4.08216 0
0 0 0

-3.60313 -2.21504 0
3.52055 1.98952 0
0 0 0

-4.40922 -2.43027 0
5.40258 0.473529 0
0 0 0

-4.00307 -2.86261 0
3.32436 4.10241 0
0 0 0

-4.57948 -3.81972 0
5.06069 0.620316 0
0 0 0

-3.27443 -5.13734 0
-1.52825 6.0476 0
0 0 0

-3.62876 -4.40773 0
-2.43504 4.58293 0
0 0 0

-4.3137 -4.76958 0
-0.653428 5.39465 0
0 0 0

-4.22606 -5.46112 0
-0.909043 4.88046 0
0 0 0

-5.73101 -4.1646 0
-1.4816 4.47266 0
0 0 0

-6.28467 3.0648 0
-0.252623 3.46127 0
0 0 0

-4.31684 -5.243 0
-1.15098 4.86906 0
0 0 0

-3.87975 3.91947 0
-2.05642 4.34117 0
0 0 0

-5.53229 2.94331 0
1.32704 3.20621 0
0 0 0

-4.94487 -2.82891 0
2.44691 4.50038 0
0 0 0

-3.68056 3.78081 0
-2.18125 4.41493 0
0 0 0

-3.05139 -2.48874 0
-1.34424 4.81056 0
0 0 0

-4.78704 -2.85356 0
2.44963 4.49995 0
0 0 0

-4.9339 -4.93779 0
2.72674 1.05589 0
0 0 0

-3.57487 -2.60794 0
1.22877 4.64716 0
0 0 0

-4.13103 -5.81382 0
2.36978 2.0952 0
0 0 0

SCALARS active double 1
LOOKUP_TABLE default
1
1
1
1
1
1
1
1
1
1
1
1
1
1
1
1
1
1
1
1
1
1
1
1
1
1
1
1
1
1
1
1
1
1
1
1
1
1
1
1
1
1
1
1
1
1
1
1
1
1
1
1
1
1
1
1
1
1
1
1
1
1
1
1
SCALARS extent double 1
LOOKUP_TABLE default
0.0125
0.0125
0.0125
0.0125
0.0125
0.0125
0.0125
0.0125
0.0125
0.0125
0.0125
0.0125
0.0125
0.0125
0.0125
0.0125
0.0125
0.0125
0.0125
0.0125
0.0125
0.0125
0.0125
0.0125
0.0125
0.0125
0.0125
0.0125
0.0125
0.0125
0.0125
0.0125
0.0125
0.0125
0.0125
0.0125
0.0125
0.0125
0.0125
0.0125
0.0125
0.0125
0.0125
0.0125
0.0125
0.0125
0.0125
0.0125
0.0125
0.0125
0.0125
0.0125
0.0125
0.0125
0.0125
0.0125
0.0125
0.0125
0.0125
0.0125
0.0125
0.0125
0.0125
0.0125
SCALARS pressure double 1
LOOKUP_TABLE default
20144.7
2111.31
20887.4
2250.73
5870.43
2411.87
7362.24
2646.72
3113.14
-926.115
2446.57
-1985.07
2206.51
-651.436
185.501
512.965
10730.5
770.848
13833.8
3512.89
6084.76
-226.893
3576.38
628.821
2217.87
5201.35
2100.01
-2142.36
-3642.05
-753.342
3146.92
-1327.63
9529.71
4974.76
11426.9
203.506
2093.7
2622.74
894.063
6088.07
385.349
785.649
-3415.66
6271.93
-780.506
330.573
-1198.39
246.206
9094.48
3582.76
4175.8
-2535.07
6002.94
3908.28
2127.48
4780.01
3022.67
-945.333
1048.93
1225.36
334.996
-657.303
47.7229
918.847
SCALARS density double 1
LOOKUP_TABLE default
1233.07
1022.2
1242.63
1023.68
1062.95
1025.4
1079.57
1027.91
1032.91
990.415
1025.77
979.567
1023.21
993.248
1001.93
1005.35
1118.06
1008.05
1154.74
1037.21
1065.33
997.643
1037.89
1006.56
1023.33
1055.58
1022.08
977.966
962.831
992.196
1033.27
986.288
1104.19
1053.1
1126.19
1002.12
1022.01
1027.65
1009.34
1065.36
1004.02
1008.2
965.101
1067.4
991.916
1003.44
987.614
1002.56
1099.2
1037.96
1044.39
973.98
1064.42
1041.48
1022.37
1050.97
1031.94
990.217
1010.97
1012.83
1003.49
993.187
1000.5
1009.6
