# vtk DataFile Version 3.0
Frame: 16, Time: 0.284
ASCII
DATASET UNSTRUCTURED_GRID
POINTS 64 double
0.512497 0.21289 0 
0.512496 0.237787 0 
0.537509 0.21287 0 
0.537505 0.237777 0 
0.512496 0.262738 0 
0.512498 0.287711 0 
0.537502 0.262734 0 
0.5375 0.287709 0 
0.512499 0.3127 0 
0.5125 0.337696 0 
0.5375 0.3127 0 
0.5375 0.337696 0 
0.5125 0.362694 0 
0.5125 0.387694 0 
0.5375 0.362694 0 
0.5375 0.387694 0 
0.562526 0.212844 0 
0.562512 0.237764 0 
0.587548 0.21281 0 
0.587519 0.237748 0 
0.562506 0.262727 0 
0.562502 0.287707 0 
0.587508 0.262719 0 
0.587503 0.287704 0 
0.562501 0.312699 0 
0.5625 0.337695 0 
0.587501 0.312698 0 
0.5875 0.337695 0 
0.5625 0.362694 0 
0.5625 0.387694 0 
0.5875 0.362694 0 
0.5875 0.387694 0 
0.612547 0.212771 0 
0.612519 0.23773 0 
0.637524 0.212725 0 
0.637512 0.237712 0 
0.612508 0.262711 0 
0.612503 0.287701 0 
0.637506 0.262704 0 
0.637502 0.287698 0 
0.612501 0.312696 0 
0.6125 0.337695 0 
0.637501 0.312695 0 
0.6375 0.337694 0 
0.6125 0.362694 0 
0.6125 0.387694 0 
0.6375 0.362694 0 
0.6375 0.387694 0 
0.66251 0.2127 0 
0.662507 0.2377 0 
0.687505 0.212696 0 
0.687504 0.237696 0 
0.662505 0.262698 0 
0.662502 0.287696 0 
0.687503 0.262696 0 
0.687502 0.287695 0 
0.662501 0.312695 0 
0.6625 0.337694 0 
0.687501 0.312694 0 
0.6875 0.337694 0 
0.6625 0.362694 0 
0.6625 0.387694 0 
0.6875 0.362694 0 
0.6875 0.387694 0 
CELLS 64 128
1 0
1 1
1 2
1 3
1 4
1 5
1 6
1 7
1 8
1 9
1 10
1 11
1 12
1 13
1 14
1 15
1 16
1 17
1 18
1 19
1 20
1 21
1 22
1 23
1 24
1 25
1 26
1 27
1 28
1 29
1 30
1 31
1 32
1 33
1 34
1 35
1 36
1 37
1 38
1 39
1 40
1 41
1 42
1 43
1 44
1 45
1 46
1 47
1 48
1 49
1 50
1 51
1 52
1 53
1 54
1 55
1 56
1 57
1 58
1 59
1 60
1 61
1 62
1 63
CELL_TYPES 64
1
1
1
1
1
1
1
1
1
1
1
1
1
1
1
1
1
1
1
1
1
1
1
1
1
1
1
1
1
1
1
1
1
1
1
1
1
1
1
1
1
1
1
1
1
1
1
1
1
1
1
1
1
1
1
1
1
1
1
1
1
1
1
1
POINT_DATA 64
VECTORS displacement double
-2.51562e-06 -0.39961 0 
-4.32013e-06 -0.399713 0 
9.38572e-06 -0.39963 0 
4.51312e-06 -0.399723 0 
-3.61685e-06 -0.399762 0 
-2.02233e-06 -0.399789 0 
2.05674e-06 -0.399766 0 
4.43461e-07 -0.399791 0 
-1.07875e-06 -0.3998 0 
-4.29663e-07 -0.399804 0 
8.69681e-09 -0.3998 0 
-1.93563e-08 -0.399804 0 
-1.71771e-07 -0.399806 0 
-7.59148e-08 -0.399806 0 
-1.8344e-08 -0.399806 0 
-1.08422e-08 -0.399806 0 
2.60884e-05 -0.399656 0 
1.21939e-05 -0.399736 0 
4.75993e-05 -0.39969 0 
1.87266e-05 -0.399752 0 
5.88676e-06 -0.399773 0 
2.03652e-06 -0.399793 0 
7.87359e-06 -0.399781 0 
2.75688e-06 -0.399796 0 
6.87949e-07 -0.399801 0 
2.46516e-07 -0.399805 0 
9.59009e-07 -0.399802 0 
3.67955e-07 -0.399805 0 
8.598e-08 -0.399806 0 
3.4104e-08 -0.399806 0 
1.41202e-07 -0.399806 0 
5.89237e-08 -0.399806 0 
4.67339e-05 -0.399729 0 
1.87031e-05 -0.39977 0 
2.3547e-05 -0.399775 0 
1.21224e-05 -0.399788 0 
8.03154e-06 -0.399789 0 
2.90094e-06 -0.399799 0 
6.36109e-06 -0.399796 0 
2.46867e-06 -0.399802 0 
1.05403e-06 -0.399804 0 
4.13196e-07 -0.399805 0 
9.73005e-07 -0.399805 0 
3.82239e-07 -0.399806 0 
1.62913e-07 -0.399806 0 
6.96731e-08 -0.399806 0 
1.51115e-07 -0.399806 0 
6.63521e-08 -0.399806 0 
9.64046e-06 -0.3998 0 
7.29632e-06 -0.3998 0 
5.0228e-06 -0.399804 0 
4.22872e-06 -0.399804 0 
4.66723e-06 -0.399802 0 
2.0038e-06 -0.399804 0 
2.95015e-06 -0.399804 0 
1.50637e-06 -0.399805 0 
8.78324e-07 -0.399805 0 
3.51647e-07 -0.399806 0 
7.69985e-07 -0.399806 0 
3.21418e-07 -0.399806 0 
1.42546e-07 -0.399806 0 
6.43963e-08 -0.399806 0 
1.37207e-07 -0.399806 0 
6.38059e-08 -0.399806 0 
VECTORS velocity double
-0.00336257 -2.70265 0 
-0.00384801 -2.76575 0 
0.00211499 -2.71361 0 
0.000743829 -2.76993 0 
-0.00282104 -2.78575 0 
-0.00130723 -2.79124 0 
0.000305414 -2.78713 0 
6.67457e-05 -2.79172 0 
-0.000609518 -2.79355 0 
-0.000232254 -2.79498 0 
-5.51683e-06 -2.79377 0 
-1.51838e-05 -2.79507 0 
-8.7581e-05 -2.79551 0 
-3.74336e-05 -2.7957 0 
-1.11659e-05 -2.79555 0 
-4.83327e-06 -2.79571 0 
0.011612 -2.72567 0 
0.00409693 -2.77392 0 
0.0251337 -2.73884 0 
0.00621499 -2.77773 0 
0.00174043 -2.78854 0 
0.000766783 -2.79233 0 
0.00148423 -2.78999 0 
0.000792866 -2.79305 0 
0.000332031 -2.79407 0 
0.000109218 -2.79518 0 
0.00040313 -2.79445 0 
0.000140952 -2.79531 0 
3.40634e-05 -2.79559 0 
1.46269e-05 -2.79573 0 
4.81069e-05 -2.79564 0 
2.0947e-05 -2.79575 0 
0.0245064 -2.75824 0 
0.00615714 -2.78321 0 
0.00975918 -2.78385 0 
0.00391977 -2.79038 0 
0.00152563 -2.79151 0 
0.000814295 -2.79377 0 
0.00186456 -2.7931 0 
0.0008311 -2.79449 0 
0.000414385 -2.79481 0 
0.000148951 -2.79545 0 
0.000365798 -2.79517 0 
0.000133218 -2.79558 0 
5.28746e-05 -2.79569 0 
2.33996e-05 -2.79577 0 
4.83665e-05 -2.79573 0 
2.19848e-05 -2.79579 0 
0.00200189 -2.79644 0 
0.00233789 -2.79435 0 
0.00124054 -2.796 0 
0.00141461 -2.79513 0 
0.0017165 -2.79429 0 
0.000745963 -2.79501 0 
0.00108151 -2.79508 0 
0.00055887 -2.79534 0 
0.000322775 -2.79541 0 
0.000122153 -2.79566 0 
0.000285316 -2.79554 0 
0.000115758 -2.79571 0 
4.68977e-05 -2.79577 0 
2.19085e-05 -2.79581 0 
4.84682e-05 -2.79578 0 
2.31706e-05 -2.79581 0 
SCALARS mass double 1
LOOKUP_TABLE default
0.625
0.625
0.625
0.625
0.625
0.625
0.625
0.625
0.625
0.625
0.625
0.625
0.625
0.625
0.625
0.625
0.625
0.625
0.625
0.625
0.625
0.625
0.625
0.625
0.625
0.625
0.625
0.625
0.625
0.625
0.625
0.625
0.625
0.625
0.625
0.625
0.625
0.625
0.625
0.625
0.625
0.625
0.625
0.625
0.625
0.625
0.625
0.625
0.625
0.625
0.625
0.625
0.625
0.625
0.625
0.625
0.625
0.625
0.625
0.625
0.625
0.625
0.625
0.625
SCALARS volume double 1
LOOKUP_TABLE default
0.000622576
0.000622957
0.000622826
0.000623198
0.000624406
0.000624463
0.000624487
0.000624524
0.000624918
0.000624918
0.00062493
0.000624927
0.000624989
0.000624989
0.000624991
0.00062499
0.00062343
0.000623436
0.000623909
0.000623786
0.000624502
0.000624565
0.000624635
0.000624672
0.000624924
0.000624933
0.000624943
0.000624948
0.00062499
0.000624991
0.000624992
0.000624993
0.000623378
0.00062393
0.000624068
0.00062452
0.000624677
0.000624751
0.000624809
0.00062486
0.000624952
0.000624959
0.000624968
0.000624973
0.000624993
0.000624994
0.000624995
0.000624996
0.000624884
0.000624913
0.000624896
0.00062493
0.000624894
0.000624931
0.000624933
0.000624965
0.000624979
0.000624983
0.000624985
0.000624988
0.000624997
0.000624997
0.000624997
0.000624998
VECTORS momentum double
-0.00210161 -1.68915 0 
-0.002405 -1.7286 0 
0.00132187 -1.69601 0 
0.000464893 -1.73121 0 
-0.00176315 -1.7411 0 
-0.000817018 -1.74452 0 
0.000190884 -1.74196 0 
4.17161e-05 -1.74483 0 
-0.000380949 -1.74597 0 
-0.000145159 -1.74686 0 
-3.44802e-06 -1.74611 0 
-9.4899e-06 -1.74692 0 
-5.47381e-05 -1.7472 0 
-2.3396e-05 -1.74731 0 
-6.97866e-06 -1.74722 0 
-3.02079e-06 -1.74732 0 
0.00725748 -1.70355 0 
0.00256058 -1.7337 0 
0.0157085 -1.71178 0 
0.00388437 -1.73608 0 
0.00108777 -1.74284 0 
0.000479239 -1.7452 0 
0.000927647 -1.74374 0 
0.000495541 -1.74566 0 
0.00020752 -1.7463 0 
6.82614e-05 -1.74699 0 
0.000251956 -1.74653 0 
8.80948e-05 -1.74707 0 
2.12896e-05 -1.74724 0 
9.14183e-06 -1.74733 0 
3.00668e-05 -1.74727 0 
1.30919e-05 -1.74734 0 
0.0153165 -1.7239 0 
0.00384821 -1.73951 0 
0.00609949 -1.73991 0 
0.00244986 -1.74399 0 
0.000953518 -1.74469 0 
0.000508934 -1.74611 0 
0.00116535 -1.74569 0 
0.000519438 -1.74656 0 
0.000258991 -1.74676 0 
9.30946e-05 -1.74715 0 
0.000228624 -1.74698 0 
8.32609e-05 -1.74723 0 
3.30466e-05 -1.7473 0 
1.46248e-05 -1.74736 0 
3.02291e-05 -1.74733 0 
1.37405e-05 -1.74737 0 
0.00125118 -1.74777 0 
0.00146118 -1.74647 0 
0.000775339 -1.7475 0 
0.000884131 -1.74696 0 
0.00107281 -1.74643 0 
0.000466227 -1.74688 0 
0.000675942 -1.74692 0 
0.000349294 -1.74709 0 
0.000201735 -1.74713 0 
7.63456e-05 -1.74729 0 
0.000178323 -1.74721 0 
7.23485e-05 -1.74732 0 
2.93111e-05 -1.74735 0 
1.36928e-05 -1.74738 0 
3.02926e-05 -1.74736 0 
1.44817e-05 -1.74738 0 
VECTORS body_force double
0 -9.81 0 
0 -9.81 0 
0 -9.81 0 
0 -9.81 0 
0 -9.81 0 
0 -9.81 0 
0 -9.81 0 
0 -9.81 0 
0 -9.81 0 
0 -9.81 0 
0 -9.81 0 
0 -9.81 0 
0 -9.81 0 
0 -9.81 0 
0 -9.81 0 
0 -9.81 0 
0 -9.81 0 
0 -9.81 0 
0 -9.81 0 
0 -9.81 0 
0 -9.81 0 
0 -9.81 0 
0 -9.81 0 
0 -9.81 0 
0 -9.81 0 
0 -9.81 0 
0 -9.81 0 
0 -9.81 0 
0 -9.81 0 
0 -9.81 0 
0 -9.81 0 
0 -9.81 0 
0 -9.81 0 
0 -9.81 0 
0 -9.81 0 
0 -9.81 0 
0 -9.81 0 
0 -9.81 0 
0 -9.81 0 
0 -9.81 0 
0 -9.81 0 
0 -9.81 0 
0 -9.81 0 
0 -9.81 0 
0 -9.81 0 
0 -9.81 0 
0 -9.81 0 
0 -9.81 0 
0 -9.81 0 
0 -9.81 0 
0 -9.81 0 
0 -9.81 0 
0 -9.81 0 
0 -9.81 0 
0 -9.81 0 
0 -9.81 0 
0 -9.81 0 
0 -9.81 0 
0 -9.81 0 
0 -9.81 0 
0 -9.81 0 
0 -9.81 0 
0 -9.81 0 
0 -9.81 0 
TENSORS cauchy_stress double
-187.618 -33.9699 0
-33.9699 -559.774 0
0 0 0

-161.704 -17.521 0
-17.521 -467.88 0
0 0 0

-164.38 -38.8722 0
-38.8722 -505.558 0
0 0 0

-139.431 -21.8636 0
-21.8636 -415.915 0
0 0 0

-37.3757 -4.8275 0
-4.8275 -145.393 0
0 0 0

-42.038 -0.332715 0
-0.332715 -123.377 0
0 0 0

-29.8832 -9.96004 0
-9.96004 -127.913 0
0 0 0

-36.3739 -4.75167 0
-4.75167 -110.162 0
0 0 0

-4.21408 -0.0190182 0
-0.0190182 -20.986 0
0 0 0

-6.32924 0.547213 0
0.547213 -18.9765 0
0 0 0

-3.15137 -1.09635 0
-1.09635 -18.5064 0
0 0 0

-5.45078 -0.397409 0
-0.397409 -16.9268 0
0 0 0

-0.523965 0.0149545 0
0.0149545 -2.79619 0
0 0 0

-0.826204 0.0781885 0
0.0781885 -2.59522 0
0 0 0

-0.403999 -0.124946 0
-0.124946 -2.51627 0
0 0 0

-0.721714 -0.0464478 0
-0.0464478 -2.35141 0
0 0 0

-79.016 -74.5446 0
-74.5446 -404.679 0
0 0 0

-124.501 -42.2636 0
-42.2636 -357.43 0
0 0 0

-34.7058 -99.5406 0
-99.5406 -301.428 0
0 0 0

-92.0536 -60.7483 0
-60.7483 -281.785 0
0 0 0

-39.8471 -18.5118 0
-18.5118 -113.343 0
0 0 0

-37.9897 -9.6739 0
-9.6739 -96.0292 0
0 0 0

-27.5564 -20.556 0
-20.556 -84.6677 0
0 0 0

-28.0862 -11.376 0
-11.376 -72.922 0
0 0 0

-6.16163 -2.43757 0
-2.43757 -17.157 0
0 0 0

-5.84913 -1.24646 0
-1.24646 -14.8935 0
0 0 0

-4.45289 -2.67358 0
-2.67358 -13.17 0
0 0 0

-4.41335 -1.46052 0
-1.46052 -11.5433 0
0 0 0

-0.764554 -0.327508 0
-0.327508 -2.35033 0
0 0 0

-0.792328 -0.176914 0
-0.176914 -2.10333 0
0 0 0

-0.548037 -0.375507 0
-0.375507 -1.84513 0
0 0 0

-0.604554 -0.220157 0
-0.220157 -1.66519 0
0 0 0

-221.356 -116.383 0
-116.383 -278.384 0
0 0 0

-119.143 -64.3807 0
-64.3807 -210.485 0
0 0 0

-157.585 -88.5426 0
-88.5426 -129.462 0
0 0 0

-64.5606 -44.0436 0
-44.0436 -83.0597 0
0 0 0

-34.9897 -20.3903 0
-20.3903 -64.5017 0
0 0 0

-24.3042 -11.2616 0
-11.2616 -52.2757 0
0 0 0

-22.7611 -18.3594 0
-18.3594 -35.9661 0
0 0 0

-14.231 -9.67405 0
-9.67405 -28.7706 0
0 0 0

-4.72606 -2.59287 0
-2.59287 -10.1963 0
0 0 0

-3.86592 -1.48475 0
-1.48475 -8.70296 0
0 0 0

-3.18948 -2.51157 0
-2.51157 -6.61099 0
0 0 0

-2.56566 -1.4189 0
-1.4189 -5.66901 0
0 0 0

-0.700671 -0.376926 0
-0.376926 -1.51389 0
0 0 0

-0.575257 -0.230794 0
-0.230794 -1.3082 0
0 0 0

-0.500701 -0.363351 0
-0.363351 -1.04729 0
0 0 0

-0.401385 -0.219267 0
-0.219267 -0.902502 0
0 0 0

-24.9574 -10.297 0
-10.297 -10.8683 0
0 0 0

-17.5107 -9.52252 0
-9.52252 -9.39307 0
0 0 0

-23.8514 -7.90148 0
-7.90148 -8.28659 0
0 0 0

-15.9253 -7.18632 0
-7.18632 -5.69273 0
0 0 0

-15.0775 -8.13213 0
-8.13213 -17.5687 0
0 0 0

-7.94085 -5.23527 0
-5.23527 -13.4269 0
0 0 0

-11.4451 -6.16659 0
-6.16659 -9.09224 0
0 0 0

-4.734 -3.59329 0
-3.59329 -5.94388 0
0 0 0

-2.27489 -1.43048 0
-1.43048 -4.19688 0
0 0 0

-1.66001 -0.961575 0
-0.961575 -3.56334 0
0 0 0

-1.68818 -1.30468 0
-1.30468 -2.82788 0
0 0 0

-1.15686 -0.856486 0
-0.856486 -2.38929 0
0 0 0

-0.330283 -0.204845 0
-0.204845 -0.715903 0
0 0 0

-0.268922 -0.14546 0
-0.14546 -0.62143 0
0 0 0

-0.258984 -0.197161 0
-0.197161 -0.549539 0
0 0 0

-0.207277 -0.139224 0
-0.139224 -0.477592 0
0 0 0

TENSORS velocity_gradient double
0.173607 -0.0244722 0
-0.313665 -1.40298 0
0 0 0

0.13844 -0.0244705 0
-0.144676 -1.40299 0
0 0 0

0.173624 -0.0597461 0
-0.313747 -1.23348 0
0 0 0

0.138449 -0.0597413 0
-0.144719 -1.2335 0
0 0 0

0.0946311 0.0292679 0
-0.0599949 -0.373903 0
0 0 0

0.04557 0.0292662 0
-0.0268209 -0.373902 0
0 0 0

0.0946375 -0.0198361 0
-0.0599993 -0.3407 0
0 0 0

0.0455721 -0.019834 0
-0.0268223 -0.340702 0
0 0 0

0.0198064 0.0116734 0
-0.0104708 -0.0633604 0
0 0 0

0.00834324 0.0116732 0
-0.00444715 -0.0633603 0
0 0 0

0.0198066 0.00020882 0
-0.0104709 -0.057336 0
0 0 0

0.0083433 0.000208836 0
-0.00444718 -0.057336 0
0 0 0

0.00300457 0.00183109 0
-0.00163552 -0.0094802 0
0 0 0

0.00142623 0.00183108 0
-0.000795999 -0.0094802 0
0 0 0

0.00300458 0.000252715 0
-0.00163552 -0.00864067 0
0 0 0

0.00142623 0.000252715 0
-0.000795999 -0.00864067 0
0 0 0

0.277929 -0.162118 0
-0.405707 -1.05646 0
0 0 0

0.109028 -0.162051 0
-0.221692 -1.05653 0
0 0 0

0.278087 -0.331479 0
-0.405879 -0.871944 0
0 0 0

0.109098 -0.331339 0
-0.221768 -0.872096 0
0 0 0

0.0332292 -0.0538112 0
-0.11232 -0.292233 0
0 0 0

0.0143867 -0.0538094 0
-0.0486338 -0.29224 0
0 0 0

0.0332331 -0.0726648 0
-0.112333 -0.22851 0
0 0 0

0.014388 -0.0726623 0
-0.0486383 -0.228518 0
0 0 0

0.0054443 -0.00695623 0
-0.0180232 -0.0491693 0
0 0 0

0.0025788 -0.0069562 0
-0.00771507 -0.0491694 0
0 0 0

0.00544438 -0.00982196 0
-0.0180234 -0.0388603 0
0 0 0

0.00257883 -0.00982192 0
-0.00771516 -0.0388605 0
0 0 0

0.00113357 -0.000823073 0
-0.0028761 -0.00748041 0
0 0 0

0.000560369 -0.000823072 0
-0.00139512 -0.00748041 0
0 0 0

0.00113357 -0.00139628 0
-0.00287611 -0.00599942 0
0 0 0

0.000560369 -0.00139628 0
-0.00139513 -0.00599942 0
0 0 0

-0.288972 -0.322562 0
-0.698294 -0.586583 0
0 0 0

-0.102965 -0.322711 0
-0.312868 -0.586892 0
0 0 0

-0.28918 -0.136484 0
-0.698725 -0.201011 0
0 0 0

-0.103047 -0.136544 0
-0.313039 -0.201134 0
0 0 0

-0.0227548 -0.0743936 0
-0.121946 -0.160777 0
0 0 0

-0.0073771 -0.0743956 0
-0.0502241 -0.160787 0
0 0 0

-0.0227578 -0.0590124 0
-0.12196 -0.0890385 0
0 0 0

-0.00737808 -0.0590139 0
-0.0502286 -0.0890455 0
0 0 0

-0.00113501 -0.0109378 0
-0.0169451 -0.0288662 0
0 0 0

-0.000501063 -0.0109378 0
-0.00726605 -0.0288663 0
0 0 0

-0.00113503 -0.0103038 0
-0.0169453 -0.0191868 0
0 0 0

-0.000501068 -0.0103038 0
-0.00726613 -0.0191869 0
0 0 0

-0.000182602 -0.00162051 0
-0.00272426 -0.00456515 0
0 0 0

-5.78505e-05 -0.00162051 0
-0.00133673 -0.00456515 0
0 0 0

-0.000182602 -0.00149576 0
-0.00272427 -0.00317761 0
0 0 0

-5.78507e-05 -0.00149576 0
-0.00133673 -0.00317761 0
0 0 0

-0.0686685 -0.0326702 0
-0.0730507 -0.00327434 0
0 0 0

-0.0470204 -0.0326716 0
-0.0629308 -0.00327495 0
0 0 0

-0.0686707 -0.0110246 0
-0.0730517 0.00684445 0
0 0 0

-0.0470224 -0.0110251 0
-0.0629317 0.00684424 0
0 0 0

-0.0275452 -0.0422502 0
-0.0436054 -0.0406877 0
0 0 0

-0.0094029 -0.0422514 0
-0.018631 -0.0406893 0
0 0 0

-0.0275462 -0.0241076 0
-0.0436068 -0.0157129 0
0 0 0

-0.00940329 -0.0241082 0
-0.0186315 -0.0157137 0
0 0 0

-0.00175661 -0.00938557 0
-0.00669078 -0.0123781 0
0 0 0

-0.0005542 -0.00938558 0
-0.00275281 -0.0123782 0
0 0 0

-0.00175662 -0.00818315 0
-0.00669081 -0.00844013 0
0 0 0

-0.000554204 -0.00818316 0
-0.00275283 -0.00844017 0
0 0 0

-5.99551e-05 -0.00140366 0
-0.00095242 -0.00223989 0
0 0 0

-5.25046e-07 -0.00140366 0
-0.000464504 -0.00223989 0
0 0 0

-5.99552e-05 -0.00134423 0
-0.000952421 -0.00175197 0
0 0 0

-5.25073e-07 -0.00134423 0
-0.000464504 -0.00175197 0
0 0 0

SCALARS active double 1
LOOKUP_TABLE default
1
1
1
1
1
1
1
1
1
1
1
1
1
1
1
1
1
1
1
1
1
1
1
1
1
1
1
1
1
1
1
1
1
1
1
1
1
1
1
1
1
1
1
1
1
1
1
1
1
1
1
1
1
1
1
1
1
1
1
1
1
1
1
1
SCALARS extent double 1
LOOKUP_TABLE default
0.0125
0.0125
0.0125
0.0125
0.0125
0.0125
0.0125
0.0125
0.0125
0.0125
0.0125
0.0125
0.0125
0.0125
0.0125
0.0125
0.0125
0.0125
0.0125
0.0125
0.0125
0.0125
0.0125
0.0125
0.0125
0.0125
0.0125
0.0125
0.0125
0.0125
0.0125
0.0125
0.0125
0.0125
0.0125
0.0125
0.0125
0.0125
0.0125
0.0125
0.0125
0.0125
0.0125
0.0125
0.0125
0.0125
0.0125
0.0125
0.0125
0.0125
0.0125
0.0125
0.0125
0.0125
0.0125
0.0125
0.0125
0.0125
0.0125
0.0125
0.0125
0.0125
0.0125
0.0125
SCALARS pressure double 1
LOOKUP_TABLE default
373.696
314.792
334.969
277.673
91.3841
82.7077
78.8982
73.268
12.6
12.6529
10.8289
11.1888
1.66008
1.71071
1.46013
1.53656
241.847
240.966
168.067
186.919
76.5952
67.0095
56.1121
50.5041
11.6593
10.3713
8.81145
7.97834
1.55744
1.44783
1.19658
1.13487
249.87
164.814
143.523
73.8102
49.7457
38.29
29.3636
21.5008
7.4612
6.28444
4.90024
4.11733
1.10728
0.941731
0.773995
0.651943
17.9129
13.4519
16.069
10.809
16.3231
10.6839
10.2686
5.33894
3.23588
2.61167
2.25803
1.77308
0.523093
0.445176
0.404262
0.342435
SCALARS density double 1
LOOKUP_TABLE default
1003.89
1003.28
1003.49
1002.89
1000.95
1000.86
1000.82
1000.76
1000.13
1000.13
1000.11
1000.12
1000.02
1000.02
1000.02
1000.02
1002.52
1002.51
1001.75
1001.95
1000.8
1000.7
1000.58
1000.53
1000.12
1000.11
1000.09
1000.08
1000.02
1000.02
1000.01
1000.01
1002.6
1001.72
1001.49
1000.77
1000.52
1000.4
1000.31
1000.22
1000.08
1000.07
1000.05
1000.04
1000.01
1000.01
1000.01
1000.01
1000.19
1000.14
1000.17
1000.11
1000.17
1000.11
1000.11
1000.06
1000.03
1000.03
1000.02
1000.02
1000.01
1000
1000
1000
