# vtk DataFile Version 3.0
Frame: 29, Time: 0.5
ASCII
DATASET UNSTRUCTURED_GRID
POINTS 64 double
0.959854 0.38611 0 
0.959765 0.359066 0 
0.934653 0.386366 0 
0.93451 0.359391 0 
0.959773 0.332981 0 
0.959035 0.306595 0 
0.934517 0.334096 0 
0.933607 0.307105 0 
0.957724 0.280384 0 
0.955454 0.254245 0 
0.932109 0.280274 0 
0.930949 0.254157 0 
0.95421 0.227526 0 
0.954288 0.201115 0 
0.930018 0.227497 0 
0.928447 0.200628 0 
0.909043 0.384977 0 
0.909704 0.359067 0 
0.883034 0.383713 0 
0.883957 0.357687 0 
0.909491 0.333446 0 
0.908919 0.307689 0 
0.883094 0.332948 0 
0.883236 0.307197 0 
0.907037 0.280854 0 
0.905299 0.255552 0 
0.881873 0.280546 0 
0.879639 0.253927 0 
0.904973 0.229132 0 
0.902813 0.202505 0 
0.88008 0.227912 0 
0.878736 0.201797 0 
0.857523 0.381813 0 
0.856862 0.357249 0 
0.831772 0.380986 0 
0.831158 0.355299 0 
0.85749 0.331737 0 
0.856972 0.305518 0 
0.831667 0.328794 0 
0.831808 0.303537 0 
0.856068 0.279739 0 
0.854832 0.253418 0 
0.830852 0.278874 0 
0.830031 0.253935 0 
0.854097 0.22783 0 
0.853102 0.202395 0 
0.827652 0.22875 0 
0.826379 0.203021 0 
0.806224 0.379052 0 
0.805936 0.353999 0 
0.779619 0.379915 0 
0.778974 0.354301 0 
0.806541 0.32873 0 
0.805819 0.302947 0 
0.780407 0.329614 0 
0.7799 0.304253 0 
0.80519 0.277135 0 
0.803454 0.251762 0 
0.778686 0.279553 0 
0.776573 0.253753 0 
0.801596 0.225645 0 
0.801635 0.199841 0 
0.775193 0.227354 0 
0.776578 0.200283 0 
CELLS 64 128
1 0
1 1
1 2
1 3
1 4
1 5
1 6
1 7
1 8
1 9
1 10
1 11
1 12
1 13
1 14
1 15
1 16
1 17
1 18
1 19
1 20
1 21
1 22
1 23
1 24
1 25
1 26
1 27
1 28
1 29
1 30
1 31
1 32
1 33
1 34
1 35
1 36
1 37
1 38
1 39
1 40
1 41
1 42
1 43
1 44
1 45
1 46
1 47
1 48
1 49
1 50
1 51
1 52
1 53
1 54
1 55
1 56
1 57
1 58
1 59
1 60
1 61
1 62
1 63
CELL_TYPES 64
1
1
1
1
1
1
1
1
1
1
1
1
1
1
1
1
1
1
1
1
1
1
1
1
1
1
1
1
1
1
1
1
1
1
1
1
1
1
1
1
1
1
1
1
1
1
1
1
1
1
1
1
1
1
1
1
1
1
1
1
1
1
1
1
POINT_DATA 64
VECTORS displacement double
0.447354 -0.22639 0 
0.447265 -0.278434 0 
0.397153 -0.226134 0 
0.39701 -0.278109 0 
0.447273 -0.329519 0 
0.446535 -0.380905 0 
0.397017 -0.328404 0 
0.396107 -0.380395 0 
0.445224 -0.432116 0 
0.442954 -0.483255 0 
0.394609 -0.432226 0 
0.393449 -0.483343 0 
0.44171 -0.534974 0 
0.441788 -0.586385 0 
0.392518 -0.535003 0 
0.390947 -0.586872 0 
0.346543 -0.227523 0 
0.347204 -0.278433 0 
0.295534 -0.228787 0 
0.296457 -0.279813 0 
0.346991 -0.329054 0 
0.346419 -0.379811 0 
0.295594 -0.329552 0 
0.295736 -0.380303 0 
0.344537 -0.431646 0 
0.342799 -0.481948 0 
0.294373 -0.431954 0 
0.292139 -0.483573 0 
0.342473 -0.533368 0 
0.340313 -0.584995 0 
0.29258 -0.534588 0 
0.291236 -0.585703 0 
0.245023 -0.230687 0 
0.244362 -0.280251 0 
0.194272 -0.231514 0 
0.193658 -0.282201 0 
0.24499 -0.330763 0 
0.244472 -0.381982 0 
0.194167 -0.333706 0 
0.194308 -0.383963 0 
0.243568 -0.432761 0 
0.242332 -0.484082 0 
0.193352 -0.433626 0 
0.192531 -0.483565 0 
0.241597 -0.53467 0 
0.240602 -0.585105 0 
0.190152 -0.53375 0 
0.188879 -0.584479 0 
0.143724 -0.233448 0 
0.143436 -0.283501 0 
0.0921194 -0.232585 0 
0.0914738 -0.283199 0 
0.144041 -0.33377 0 
0.143319 -0.384553 0 
0.0929074 -0.332886 0 
0.0924003 -0.383247 0 
0.14269 -0.435365 0 
0.140954 -0.485738 0 
0.0911863 -0.432947 0 
0.0890726 -0.483747 0 
0.139096 -0.536855 0 
0.139135 -0.587659 0 
0.0876931 -0.535146 0 
0.0890776 -0.587217 0 
VECTORS velocity double
3.08023 -1.86623 0 
2.25893 -2.08372 0 
3.28768 -0.467252 0 
2.06812 -1.21989 0 
2.30863 -1.93175 0 
2.18741 -2.33744 0 
1.93812 -0.77267 0 
1.41713 -1.20719 0 
1.63389 -1.9923 0 
0.671742 -2.39583 0 
0.674153 -1.1299 0 
0.0338162 -1.17923 0 
0.532517 -2.01149 0 
0.058089 -2.39421 0 
-0.144651 -0.60817 0 
-0.616306 -0.999328 0 
3.28892 -1.11933 0 
2.66169 -1.6401 0 
3.22641 -0.590713 0 
2.48303 -1.0867 0 
2.61605 -0.624461 0 
2.06243 -1.0603 0 
2.30167 -0.53602 0 
1.67828 -0.57362 0 
1.0782 -1.00814 0 
0.694591 -0.906382 0 
0.639038 -0.674319 0 
0.406803 -0.804698 0 
0.590225 -0.648958 0 
-0.199968 -0.690741 0 
0.671866 -0.562858 0 
-0.266855 -0.609331 0 
3.26103 -0.461364 0 
2.48702 -0.302382 0 
3.11332 0.312214 0 
2.13489 0.349999 0 
2.41555 -0.35084 0 
1.72389 -0.18675 0 
2.32026 0.234903 0 
1.50927 0.144545 0 
1.00083 -0.25996 0 
0.659908 -0.207213 0 
0.618478 -0.374724 0 
0.59577 0.150449 0 
0.239436 0.0121701 0 
-0.283308 -0.0682883 0 
0.13209 0.635172 0 
-0.83931 0.153866 0 
3.83889 0.406715 0 
2.31689 0.047049 0 
3.50125 1.40067 0 
2.15531 1.35203 0 
2.40193 0.151291 0 
1.68931 0.418078 0 
2.15234 1.20764 0 
1.19734 1.83675 0 
1.26218 0.380286 0 
1.10586 0.258191 0 
1.17756 1.89976 0 
0.833918 1.51047 0 
0.866238 0.383353 0 
-0.81436 -0.0304759 0 
0.21936 2.23056 0 
-0.81779 1.57171 0 
SCALARS mass double 1
LOOKUP_TABLE default
0.625
0.625
0.625
0.625
0.625
0.625
0.625
0.625
0.625
0.625
0.625
0.625
0.625
0.625
0.625
0.625
0.625
0.625
0.625
0.625
0.625
0.625
0.625
0.625
0.625
0.625
0.625
0.625
0.625
0.625
0.625
0.625
0.625
0.625
0.625
0.625
0.625
0.625
0.625
0.625
0.625
0.625
0.625
0.625
0.625
0.625
0.625
0.625
0.625
0.625
0.625
0.625
0.625
0.625
0.625
0.625
0.625
0.625
0.625
0.625
0.625
0.625
0.625
0.625
SCALARS volume double 1
LOOKUP_TABLE default
0.000530739
0.000538164
0.000632565
0.000643012
0.000534508
0.000566018
0.000613933
0.000655966
0.000564313
0.000576029
0.000639497
0.000641035
0.000583845
0.000590297
0.000632449
0.000629827
0.000638795
0.000624984
0.000633933
0.000635141
0.000631313
0.000641408
0.000628429
0.000641295
0.000607793
0.000637404
0.000680401
0.000660211
0.000613571
0.000623591
0.000625694
0.000604048
0.000619435
0.000627073
0.000612292
0.000645302
0.000635446
0.000630455
0.000621944
0.000621982
0.000629766
0.000603115
0.000628693
0.00059575
0.000659433
0.000632259
0.000628748
0.000616201
0.000632747
0.000627201
0.000639554
0.00060692
0.0006158
0.000630659
0.000615122
0.000630686
0.000632844
0.000653314
0.000611719
0.000635133
0.000646304
0.000637693
0.000630505
0.000631612
VECTORS momentum double
1.92514 -1.16639 0 
1.41183 -1.30232 0 
2.0548 -0.292033 0 
1.29257 -0.762432 0 
1.4429 -1.20734 0 
1.36713 -1.4609 0 
1.21132 -0.482919 0 
0.885707 -0.754495 0 
1.02118 -1.24519 0 
0.419839 -1.49739 0 
0.421346 -0.706189 0 
0.0211351 -0.737017 0 
0.332823 -1.25718 0 
0.0363056 -1.49638 0 
-0.0904069 -0.380106 0 
-0.385191 -0.62458 0 
2.05557 -0.699582 0 
1.66356 -1.02506 0 
2.0165 -0.369196 0 
1.55189 -0.679185 0 
1.63503 -0.390288 0 
1.28902 -0.662689 0 
1.43854 -0.335013 0 
1.04892 -0.358512 0 
0.673876 -0.630088 0 
0.434119 -0.566489 0 
0.399399 -0.42145 0 
0.254252 -0.502936 0 
0.368891 -0.405598 0 
-0.12498 -0.431713 0 
0.419916 -0.351786 0 
-0.166785 -0.380832 0 
2.03815 -0.288353 0 
1.55439 -0.188989 0 
1.94583 0.195134 0 
1.33431 0.218749 0 
1.50972 -0.219275 0 
1.07743 -0.116719 0 
1.45016 0.146815 0 
0.943297 0.0903408 0 
0.625518 -0.162475 0 
0.412442 -0.129508 0 
0.386549 -0.234203 0 
0.372356 0.0940304 0 
0.149648 0.00760628 0 
-0.177067 -0.0426802 0 
0.0825563 0.396983 0 
-0.524569 0.0961662 0 
2.39931 0.254197 0 
1.44806 0.0294056 0 
2.18828 0.875419 0 
1.34707 0.845021 0 
1.5012 0.0945569 0 
1.05582 0.261299 0 
1.34521 0.754778 0 
0.748335 1.14797 0 
0.788863 0.237679 0 
0.691163 0.161369 0 
0.735972 1.18735 0 
0.521199 0.944042 0 
0.541399 0.239596 0 
-0.508975 -0.0190474 0 
0.1371 1.3941 0 
-0.511119 0.982321 0 
VECTORS body_force double
0 -9.81 0 
0 -9.81 0 
0 -9.81 0 
0 -9.81 0 
0 -9.81 0 
0 -9.81 0 
0 -9.81 0 
0 -9.81 0 
0 -9.81 0 
0 -9.81 0 
0 -9.81 0 
0 -9.81 0 
0 -9.81 0 
0 -9.81 0 
0 -9.81 0 
0 -9.81 0 
0 -9.81 0 
0 -9.81 0 
0 -9.81 0 
0 -9.81 0 
0 -9.81 0 
0 -9.81 0 
0 -9.81 0 
0 -9.81 0 
0 -9.81 0 
0 -9.81 0 
0 -9.81 0 
0 -9.81 0 
0 -9.81 0 
0 -9.81 0 
0 -9.81 0 
0 -9.81 0 
0 -9.81 0 
0 -9.81 0 
0 -9.81 0 
0 -9.81 0 
0 -9.81 0 
0 -9.81 0 
0 -9.81 0 
0 -9.81 0 
0 -9.81 0 
0 -9.81 0 
0 -9.81 0 
0 -9.81 0 
0 -9.81 0 
0 -9.81 0 
0 -9.81 0 
0 -9.81 0 
0 -9.81 0 
0 -9.81 0 
0 -9.81 0 
0 -9.81 0 
0 -9.81 0 
0 -9.81 0 
0 -9.81 0 
0 -9.81 0 
0 -9.81 0 
0 -9.81 0 
0 -9.81 0 
0 -9.81 0 
0 -9.81 0 
0 -9.81 0 
0 -9.81 0 
0 -9.81 0 
TENSORS cauchy_stress double
-22653.3 352.562 0
352.562 -8785.56 0
0 0 0

-24320.2 2776.34 0
2776.34 -4446.83 0
0 0 0

289.018 -3161.9 0
-3161.9 2024.84 0
0 0 0

1498.74 3190.44 0
3190.44 3965.02 0
0 0 0

-21855.5 1120.5 0
1120.5 -8222.41 0
0 0 0

-15997.8 1953.8 0
1953.8 -3064.89 0
0 0 0

-2141.44 -1426.02 0
-1426.02 -1294.37 0
0 0 0

-336.831 873.539 0
873.539 9636.45 0
0 0 0

-15452.2 4372.19 0
4372.19 -4190.46 0
0 0 0

-13685.2 3489.96 0
3489.96 -2005.93 0
0 0 0

1714.43 1512.78 0
1512.78 2695.31 0
0 0 0

451.819 1631.47 0
1631.47 4419.76 0
0 0 0

-12872.9 2870.76 0
2870.76 -226.285 0
0 0 0

-9588.11 847.182 0
847.182 -1397.68 0
0 0 0

-447.03 2024.26 0
2024.26 2725.59 0
0 0 0

1732.18 -2496.8 0
-2496.8 -252.773 0
0 0 0

5012.11 -244.676 0
-244.676 -813.518 0
0 0 0

-1985.01 967.729 0
967.729 1980.2 0
0 0 0

1194 -1375.81 0
-1375.81 1535.28 0
0 0 0

5064.25 624.304 0
624.304 -1969.07 0
0 0 0

2022.37 2925.09 0
2925.09 -89.5777 0
0 0 0

1832 2942.01 0
2942.01 3151.47 0
0 0 0

-1217.04 5860.77 0
5860.77 2269.24 0
0 0 0

3181.17 3051.69 0
3051.69 1768.52 0
0 0 0

-5456.83 5811.66 0
5811.66 88.031 0
0 0 0

2585.9 1825.66 0
1825.66 1193.27 0
0 0 0

7551.64 5396.98 0
5396.98 8781.22 0
0 0 0

3332.5 3254.94 0
3254.94 7207.58 0
0 0 0

-4563.77 -647.055 0
-647.055 1014.46 0
0 0 0

-3875.01 673.916 0
673.916 3441.03 0
0 0 0

-997.944 2270.18 0
2270.18 1211.23 0
0 0 0

-7000.51 2585.69 0
2585.69 443.238 0
0 0 0

587.49 -238.997 0
-238.997 -2307.4 0
0 0 0

2481.41 1654.34 0
1654.34 -1844.59 0
0 0 0

-2551.52 -291.87 0
-291.87 -1398.97 0
0 0 0

629.791 -201.249 0
-201.249 5517.65 0
0 0 0

1148.06 526.138 0
526.138 2039.38 0
0 0 0

-1091.77 318.205 0
318.205 2762.88 0
0 0 0

-970.822 3361.27 0
3361.27 28.1081 0
0 0 0

4094.72 3603.74 0
3603.74 -5025.73 0
0 0 0

-905.01 843.152 0
843.152 2365.77 0
0 0 0

-6637.39 2938.93 0
2938.93 -217.179 0
0 0 0

355.912 6569.41 0
6569.41 777.096 0
0 0 0

-1100.83 7181.36 0
7181.36 -8116.67 0
0 0 0

8179.99 -514.059 0
-514.059 2133.26 0
0 0 0

4137.96 387.804 0
387.804 -1917.18 0
0 0 0

337.702 683.411 0
683.411 812.046 0
0 0 0

-2542.68 -65.4531 0
-65.4531 -183.971 0
0 0 0

3046.25 -1580.04 0
-1580.04 -677.147 0
0 0 0

3828.86 -1389.82 0
-1389.82 -3152.84 0
0 0 0

1397.18 914.871 0
914.871 3029.63 0
0 0 0

-1042.62 3183.34 0
3183.34 -4602.53 0
0 0 0

-1444.01 -3313.82 0
-3313.82 -1407.88 0
0 0 0

728.204 868.879 0
868.879 1005.31 0
0 0 0

559.961 -371.036 0
-371.036 -3623.5 0
0 0 0

1019.75 1004.54 0
1004.54 721.753 0
0 0 0

1964.07 102.776 0
102.776 434.527 0
0 0 0

5225.08 2147.37 0
2147.37 3295.36 0
0 0 0

723.876 2498.25 0
2498.25 -4854.53 0
0 0 0

-122.859 966.229 0
966.229 3215.63 0
0 0 0

3759.46 3151.38 0
3151.38 2686.51 0
0 0 0

1860.41 -1591.46 0
-1591.46 2005.85 0
0 0 0

65.7117 2774.01 0
2774.01 1620.83 0
0 0 0

-383.928 -2159.71 0
-2159.71 2407.73 0
0 0 0

TENSORS velocity_gradient double
-54.362 10.4571 0
-3.10396 3.77454 0
0 0 0

-47.7258 10.4073 0
-0.672566 3.7563 0
0 0 0

-5.93954 12.7417 0
-9.10538 3.10985 0
0 0 0

-5.30969 12.737 0
-11.0965 3.1247 0
0 0 0

-40.865 11.576 0
-1.51866 3.2039 0
0 0 0

-33.6049 11.7 0
-4.59539 3.15135 0
0 0 0

-3.25836 15.9796 0
-13.2799 0.578363 0
0 0 0

0.0833896 16.0388 0
-15.8606 0.532621 0
0 0 0

-23.6712 18.5069 0
-8.63049 0.601217 0
0 0 0

-11.2082 18.749 0
-13.5602 0.376955 0
0 0 0

0.508526 20.7223 0
-16.9886 -0.875463 0
0 0 0

-0.36007 20.1054 0
-17.442 -0.895179 0
0 0 0

-4.49365 9.71586 0
-15.2419 -0.480122 0
0 0 0

0.100347 8.54743 0
-15.8821 0.746772 0
0 0 0

-0.169976 11.1759 0
-18.0265 -1.04341 0
0 0 0

0.131719 8.92837 0
-18.8324 -0.225329 0
0 0 0

-5.80672 13.3406 0
-9.29587 1.20814 0
0 0 0

-5.29565 13.3209 0
-11.1408 1.27868 0
0 0 0

1.28443 12.9925 0
-14.6271 0.322378 0
0 0 0

0.638638 13.0238 0
-15.1896 0.349641 0
0 0 0

-3.13642 19.0867 0
-13.3741 -1.82113 0
0 0 0

0.0595438 19.0966 0
-15.8422 -1.82875 0
0 0 0

0.545131 20.1258 0
-14.5293 -1.542 0
0 0 0

0.724993 20.1212 0
-13.2065 -1.57587 0
0 0 0

0.506116 19.8711 0
-16.8579 -1.30281 0
0 0 0

-0.365497 19.8322 0
-16.7768 -1.30742 0
0 0 0

0.232713 19.1122 0
-12.6206 -1.22083 0
0 0 0

-0.452281 18.2127 0
-12.3764 -1.30666 0
0 0 0

-0.0801981 11.6831 0
-17.3089 -1.61356 0
0 0 0

0.80328 9.68376 0
-17.0476 -1.49358 0
0 0 0

0.808726 13.1116 0
-12.5049 -1.90983 0
0 0 0

2.5367 10.0504 0
-12.5098 -1.14032 0
0 0 0

0.607478 12.4573 0
-14.8548 -0.173663 0
0 0 0

0.326281 12.4698 0
-15.1636 -0.169346 0
0 0 0

-3.45048 14.26 0
-15.9996 0.644326 0
0 0 0

-1.06245 14.7804 0
-14.8784 0.485578 0
0 0 0

0.467548 20.2965 0
-14.5399 -0.282028 0
0 0 0

0.611762 20.2255 0
-13.4125 -0.307058 0
0 0 0

-0.73035 20.1333 0
-15.962 -1.27638 0
0 0 0

-1.08375 19.3543 0
-17.4786 -1.07523 0
0 0 0

-0.0858375 18.3343 0
-13.1072 -0.962411 0
0 0 0

-1.07271 17.5891 0
-13.1107 -1.18331 0
0 0 0

-2.66493 16.6575 0
-17.4052 -0.52624 0
0 0 0

-4.32222 16.8971 0
-16.862 -0.574937 0
0 0 0

0.320498 14.9686 0
-13.0583 -2.0473 0
0 0 0

2.34574 11.9368 0
-12.894 -0.587786 0
0 0 0

-1.94186 18.2442 0
-15.4256 -0.672825 0
0 0 0

1.74384 16.0115 0
-14.0536 -0.296956 0
0 0 0

-2.14369 16.5522 0
-15.7441 1.71256 0
0 0 0

-0.464705 17.2839 0
-15.1441 0.683074 0
0 0 0

1.27911 16.9943 0
-15.265 1.36457 0
0 0 0

1.29814 17.7569 0
-15.9862 -0.0433199 0
0 0 0

-0.384686 19.9045 0
-16.2025 -2.90535 0
0 0 0

-0.59843 18.2984 0
-17.7591 -2.03267 0
0 0 0

1.71059 20.2817 0
-17.4358 -4.63217 0
0 0 0

2.18526 18.7435 0
-19.068 -3.61995 0
0 0 0

-1.98142 14.7452 0
-17.8259 -0.0785204 0
0 0 0

-2.58032 17.421 0
-17.8366 0.302059 0
0 0 0

1.97965 14.0253 0
-19.9127 -0.545517 0
0 0 0

1.59402 16.2626 0
-20.5371 -0.0346944 0
0 0 0

-0.397989 21.4373 0
-17.2721 0.904043 0
0 0 0

1.92733 17.9107 0
-16.2348 -0.820071 0
0 0 0

1.26596 21.6881 0
-20.5059 1.30808 0
0 0 0

1.04352 18.7504 0
-20.1544 -0.290856 0
0 0 0

SCALARS active double 1
LOOKUP_TABLE default
1
1
1
1
1
1
1
1
1
1
1
1
1
1
1
1
1
1
1
1
1
1
1
1
1
1
1
1
1
1
1
1
1
1
1
1
1
1
1
1
1
1
1
1
1
1
1
1
1
1
1
1
1
1
1
1
1
1
1
1
1
1
1
1
SCALARS extent double 1
LOOKUP_TABLE default
0.0125
0.0125
0.0125
0.0125
0.0125
0.0125
0.0125
0.0125
0.0125
0.0125
0.0125
0.0125
0.0125
0.0125
0.0125
0.0125
0.0125
0.0125
0.0125
0.0125
0.0125
0.0125
0.0125
0.0125
0.0125
0.0125
0.0125
0.0125
0.0125
0.0125
0.0125
0.0125
0.0125
0.0125
0.0125
0.0125
0.0125
0.0125
0.0125
0.0125
0.0125
0.0125
0.0125
0.0125
0.0125
0.0125
0.0125
0.0125
0.0125
0.0125
0.0125
0.0125
0.0125
0.0125
0.0125
0.0125
0.0125
0.0125
0.0125
0.0125
0.0125
0.0125
0.0125
0.0125
SCALARS pressure double 1
LOOKUP_TABLE default
15719.4
14383.5
-1156.93
-2731.88
15039
9531.33
1717.91
-4649.81
9821.34
7845.58
-2204.87
-2435.79
6549.58
5492.9
-1139.28
-739.703
-2099.29
2.40714
-1364.64
-1547.59
-966.398
-2491.74
-526.101
-2474.85
2684.4
-1889.58
-8166.43
-5270.04
1774.65
216.992
-106.642
3278.64
859.955
-318.409
1975.25
-3073.72
-1593.72
-835.553
471.357
465.508
-730.381
3427.29
-566.504
4608.75
-5156.62
-1110.39
-574.874
1363.33
-1184.55
-338.012
-2213.4
2822.57
1425.95
-866.757
1531.77
-870.75
-1199.3
-4260.22
2065.33
-1546.38
-3222.99
-1933.13
-843.272
-1011.9
SCALARS density double 1
LOOKUP_TABLE default
1177.6
1161.36
988.04
971.988
1169.3
1104.21
1018.03
952.793
1107.54
1085.02
977.33
974.986
1070.49
1058.79
988.221
992.337
978.404
1000.03
985.908
984.034
990
974.419
994.543
974.59
1028.31
980.54
918.576
946.666
1018.63
1002.26
998.892
1034.69
1008.98
996.694
1020.76
968.539
983.562
991.348
1004.91
1004.85
992.433
1036.29
994.126
1049.1
947.784
988.518
994.039
1014.28
987.756
996.491
977.244
1029.79
1014.94
991.026
1016.06
990.985
987.605
956.661
1021.71
984.046
967.036
980.096
991.268
989.531
