# vtk DataFile Version 3.0
Frame: 38, Time: 0.65
ASCII
DATASET UNSTRUCTURED_GRID
POINTS 64 double
0.0755989 0.0429907 0 
0.0737833 0.0655947 0 
0.101119 0.0445709 0 
0.0984704 0.0678327 0 
0.0691434 0.0884483 0 
0.0664846 0.11217 0 
0.0951275 0.0910761 0 
0.092513 0.115075 0 
0.0615685 0.135519 0 
0.0573909 0.160649 0 
0.0887164 0.139186 0 
0.0834866 0.162549 0 
0.0578079 0.186156 0 
0.0551892 0.209954 0 
0.0831062 0.188004 0 
0.0801804 0.212717 0 
0.126305 0.0470027 0 
0.122352 0.0710611 0 
0.150425 0.0473368 0 
0.146608 0.0713284 0 
0.118823 0.0949408 0 
0.115233 0.118626 0 
0.144792 0.0959102 0 
0.140661 0.119552 0 
0.111643 0.143062 0 
0.106714 0.166391 0 
0.137291 0.144543 0 
0.133079 0.168328 0 
0.105922 0.190975 0 
0.10447 0.218245 0 
0.13096 0.192973 0 
0.128215 0.21872 0 
0.175491 0.0468005 0 
0.169753 0.0715685 0 
0.203828 0.0504357 0 
0.195163 0.0746966 0 
0.168652 0.0971008 0 
0.16457 0.121201 0 
0.193483 0.100064 0 
0.188498 0.124408 0 
0.161983 0.145989 0 
0.158565 0.170552 0 
0.185593 0.149334 0 
0.182667 0.173966 0 
0.154874 0.196722 0 
0.151849 0.221839 0 
0.178923 0.199036 0 
0.175962 0.224719 0 
0.229043 0.053619 0 
0.219112 0.0781378 0 
0.252606 0.0570136 0 
0.243127 0.0816146 0 
0.217858 0.102732 0 
0.212964 0.126457 0 
0.243309 0.105713 0 
0.238293 0.130269 0 
0.209476 0.150999 0 
0.207302 0.176551 0 
0.234221 0.155773 0 
0.232853 0.181468 0 
0.202622 0.20178 0 
0.199312 0.226524 0 
0.227384 0.206942 0 
0.224602 0.231737 0 
CELLS 64 128
1 0
1 1
1 2
1 3
1 4
1 5
1 6
1 7
1 8
1 9
1 10
1 11
1 12
1 13
1 14
1 15
1 16
1 17
1 18
1 19
1 20
1 21
1 22
1 23
1 24
1 25
1 26
1 27
1 28
1 29
1 30
1 31
1 32
1 33
1 34
1 35
1 36
1 37
1 38
1 39
1 40
1 41
1 42
1 43
1 44
1 45
1 46
1 47
1 48
1 49
1 50
1 51
1 52
1 53
1 54
1 55
1 56
1 57
1 58
1 59
1 60
1 61
1 62
1 63
CELL_TYPES 64
1
1
1
1
1
1
1
1
1
1
1
1
1
1
1
1
1
1
1
1
1
1
1
1
1
1
1
1
1
1
1
1
1
1
1
1
1
1
1
1
1
1
1
1
1
1
1
1
1
1
1
1
1
1
1
1
1
1
1
1
1
1
1
1
POINT_DATA 64
VECTORS displacement double
-0.336901 -0.369509 0 
-0.338717 -0.371905 0 
-0.336381 -0.367929 0 
-0.33903 -0.369667 0 
-0.343357 -0.374052 0 
-0.346015 -0.37533 0 
-0.342373 -0.371424 0 
-0.344987 -0.372425 0 
-0.350931 -0.376981 0 
-0.355109 -0.376851 0 
-0.348784 -0.373314 0 
-0.354013 -0.374951 0 
-0.354692 -0.376344 0 
-0.357311 -0.377546 0 
-0.354394 -0.374496 0 
-0.35732 -0.374783 0 
-0.336195 -0.365497 0 
-0.340148 -0.366439 0 
-0.337075 -0.365163 0 
-0.340892 -0.366172 0 
-0.343677 -0.367559 0 
-0.347267 -0.368874 0 
-0.342708 -0.36659 0 
-0.346839 -0.367948 0 
-0.350857 -0.369438 0 
-0.355786 -0.371109 0 
-0.350209 -0.367957 0 
-0.354421 -0.369172 0 
-0.356578 -0.371525 0 
-0.35803 -0.369255 0 
-0.35654 -0.369527 0 
-0.359285 -0.36878 0 
-0.337009 -0.365699 0 
-0.342747 -0.365932 0 
-0.333672 -0.362064 0 
-0.342337 -0.362803 0 
-0.343848 -0.365399 0 
-0.34793 -0.366299 0 
-0.344017 -0.362436 0 
-0.349002 -0.363092 0 
-0.350517 -0.366511 0 
-0.353935 -0.366948 0 
-0.351907 -0.363166 0 
-0.354833 -0.363534 0 
-0.357626 -0.365778 0 
-0.360651 -0.365661 0 
-0.358577 -0.363464 0 
-0.361538 -0.362781 0 
-0.333457 -0.358881 0 
-0.343388 -0.359362 0 
-0.334894 -0.355486 0 
-0.344373 -0.355885 0 
-0.344642 -0.359768 0 
-0.349536 -0.361043 0 
-0.344191 -0.356787 0 
-0.349207 -0.357231 0 
-0.353024 -0.361501 0 
-0.355198 -0.360949 0 
-0.353279 -0.356727 0 
-0.354647 -0.356032 0 
-0.359878 -0.36072 0 
-0.363188 -0.360976 0 
-0.360116 -0.355558 0 
-0.362898 -0.355763 0 
VECTORS velocity double
-0.531525 -0.00721948 0 
-0.500834 1.15769 0 
-0.711377 0.574895 0 
-1.03443 1.05006 0 
-0.849449 0.425334 0 
-0.752618 0.610169 0 
-0.573387 0.70918 0 
-0.584716 1.24754 0 
-0.581385 0.797535 0 
-1.01522 0.936511 0 
-0.709127 1.30573 0 
-0.802649 0.781489 0 
-0.795446 0.946009 0 
-1.49821 0.909162 0 
-0.922195 0.959025 0 
-1.24099 1.05334 0 
-0.669181 0.031927 0 
-0.892524 0.89878 0 
-1.30384 0.147019 0 
-0.943787 1.05231 0 
-0.490937 0.67747 0 
-0.639118 1.03493 0 
-0.389187 0.833426 0 
-0.767665 0.977088 0 
-0.899565 1.21761 0 
-0.861341 1.00868 0 
-0.993527 1.33192 0 
-0.951802 1.24225 0 
-1.18009 1.28956 0 
-1.27354 1.38045 0 
-1.14735 1.59909 0 
-1.18324 1.41551 0 
-1.50943 0.242902 0 
-1.4508 0.829874 0 
-1.48246 0.385076 0 
-1.11816 1.24532 0 
-0.719451 0.839226 0 
-0.749609 1.14884 0 
-0.525131 0.903934 0 
-0.748986 1.37064 0 
-1.0381 1.24118 0 
-0.633669 1.24329 0 
-1.24367 1.51657 0 
-0.723125 1.48674 0 
-1.0932 1.22298 0 
-1.27216 1.48937 0 
-1.02786 1.5419 0 
-1.14491 1.60815 0 
-1.3862 0.273553 0 
-0.866477 1.20682 0 
-1.57587 0.78116 0 
-1.27062 0.780297 0 
-0.856645 0.428535 0 
-0.72793 0.897175 0 
-0.678148 0.550393 0 
-0.604334 0.839236 0 
-0.986197 1.36792 0 
-0.661331 1.06323 0 
-0.904974 1.22976 0 
-0.9286 1.18586 0 
-0.979411 1.29264 0 
-1.01414 0.939539 0 
-0.756918 1.18848 0 
-0.841461 1.17341 0 
SCALARS mass double 1
LOOKUP_TABLE default
0.625
0.625
0.625
0.625
0.625
0.625
0.625
0.625
0.625
0.625
0.625
0.625
0.625
0.625
0.625
0.625
0.625
0.625
0.625
0.625
0.625
0.625
0.625
0.625
0.625
0.625
0.625
0.625
0.625
0.625
0.625
0.625
0.625
0.625
0.625
0.625
0.625
0.625
0.625
0.625
0.625
0.625
0.625
0.625
0.625
0.625
0.625
0.625
0.625
0.625
0.625
0.625
0.625
0.625
0.625
0.625
0.625
0.625
0.625
0.625
0.625
0.625
0.625
0.625
SCALARS volume double 1
LOOKUP_TABLE default
0.000583536
0.000617121
0.000549925
0.000602511
0.000601099
0.000626261
0.000592843
0.000609236
0.000614936
0.000628023
0.000605725
0.000629043
0.000610606
0.000620794
0.000619441
0.000620214
0.000604517
0.000620709
0.000583373
0.000608282
0.000601465
0.000616838
0.000618315
0.000615841
0.000598116
0.000575825
0.000608568
0.000625307
0.000631646
0.000614646
0.000591557
0.000617946
0.000611956
0.000598724
0.000631935
0.000646666
0.000625299
0.00060399
0.000634536
0.000587386
0.000626332
0.00061339
0.000653561
0.000579611
0.000623441
0.000610367
0.000626239
0.000603012
0.00061604
0.000617539
0.000615408
0.00064232
0.000598206
0.000613194
0.000629232
0.000626336
0.000622747
0.000631965
0.000641799
0.000627895
0.000624167
0.000621899
0.000629221
0.000621353
VECTORS momentum double
-0.332203 -0.00451218 0 
-0.313021 0.723559 0 
-0.444611 0.359309 0 
-0.646522 0.656285 0 
-0.530905 0.265834 0 
-0.470386 0.381356 0 
-0.358367 0.443238 0 
-0.365448 0.779715 0 
-0.363366 0.498459 0 
-0.634511 0.585319 0 
-0.443204 0.81608 0 
-0.501656 0.48843 0 
-0.497154 0.591255 0 
-0.936381 0.568226 0 
-0.576372 0.599391 0 
-0.77562 0.658335 0 
-0.418238 0.0199544 0 
-0.557827 0.561738 0 
-0.814901 0.0918869 0 
-0.589867 0.657695 0 
-0.306836 0.423419 0 
-0.399449 0.646831 0 
-0.243242 0.520891 0 
-0.479791 0.61068 0 
-0.562228 0.761006 0 
-0.538338 0.630427 0 
-0.620955 0.83245 0 
-0.594876 0.776406 0 
-0.737559 0.805972 0 
-0.795966 0.862781 0 
-0.717094 0.999429 0 
-0.739525 0.884696 0 
-0.943395 0.151814 0 
-0.906748 0.518671 0 
-0.92654 0.240673 0 
-0.698851 0.778323 0 
-0.449657 0.524516 0 
-0.468505 0.718025 0 
-0.328207 0.564958 0 
-0.468116 0.856649 0 
-0.64881 0.77574 0 
-0.396043 0.777054 0 
-0.777293 0.947855 0 
-0.451953 0.92921 0 
-0.683249 0.76436 0 
-0.795103 0.930858 0 
-0.642411 0.963687 0 
-0.715568 1.00509 0 
-0.866375 0.170971 0 
-0.541548 0.754263 0 
-0.984918 0.488225 0 
-0.794138 0.487686 0 
-0.535403 0.267834 0 
-0.454956 0.560734 0 
-0.423842 0.343996 0 
-0.377709 0.524523 0 
-0.616373 0.85495 0 
-0.413332 0.664519 0 
-0.565609 0.7686 0 
-0.580375 0.741162 0 
-0.612132 0.807898 0 
-0.633835 0.587212 0 
-0.473074 0.7428 0 
-0.525913 0.733383 0 
VECTORS body_force double
0 -9.81 0 
0 -9.81 0 
0 -9.81 0 
0 -9.81 0 
0 -9.81 0 
0 -9.81 0 
0 -9.81 0 
0 -9.81 0 
0 -9.81 0 
0 -9.81 0 
0 -9.81 0 
0 -9.81 0 
0 -9.81 0 
0 -9.81 0 
0 -9.81 0 
0 -9.81 0 
0 -9.81 0 
0 -9.81 0 
0 -9.81 0 
0 -9.81 0 
0 -9.81 0 
0 -9.81 0 
0 -9.81 0 
0 -9.81 0 
0 -9.81 0 
0 -9.81 0 
0 -9.81 0 
0 -9.81 0 
0 -9.81 0 
0 -9.81 0 
0 -9.81 0 
0 -9.81 0 
0 -9.81 0 
0 -9.81 0 
0 -9.81 0 
0 -9.81 0 
0 -9.81 0 
0 -9.81 0 
0 -9.81 0 
0 -9.81 0 
0 -9.81 0 
0 -9.81 0 
0 -9.81 0 
0 -9.81 0 
0 -9.81 0 
0 -9.81 0 
0 -9.81 0 
0 -9.81 0 
0 -9.81 0 
0 -9.81 0 
0 -9.81 0 
0 -9.81 0 
0 -9.81 0 
0 -9.81 0 
0 -9.81 0 
0 -9.81 0 
0 -9.81 0 
0 -9.81 0 
0 -9.81 0 
0 -9.81 0 
0 -9.81 0 
0 -9.81 0 
0 -9.81 0 
0 -9.81 0 
TENSORS cauchy_stress double
3141.95 1772.3 0
1772.3 -16342.9 0
0 0 0

352.955 -354.352 0
-354.352 -2792.73 0
0 0 0

-7050.46 -2751.34 0
-2751.34 -17559 0
0 0 0

-2974.54 -858.388 0
-858.388 -4072.58 0
0 0 0

-830.749 1979.13 0
1979.13 -6667.78 0
0 0 0

-680.524 4661.68 0
4661.68 1068.11 0
0 0 0

-507.354 -2046.02 0
-2046.02 -9650.85 0
0 0 0

-1429.14 -691.685 0
-691.685 -3483.47 0
0 0 0

54.4267 231.687 0
231.687 -3176.24 0
0 0 0

-1497.78 1691.21 0
1691.21 2425.81 0
0 0 0

1374.96 -3523.21 0
-3523.21 -7399.03 0
0 0 0

2222.38 2969.07 0
2969.07 -982.314 0
0 0 0

-1473.91 -445.399 0
-445.399 -3006.69 0
0 0 0

-3028.94 702.254 0
702.254 1730.31 0
0 0 0

-3710.14 -2007.16 0
-2007.16 1992.12 0
0 0 0

522.505 251.338 0
251.338 -2000.9 0
0 0 0

-25.9584 -1613.72 0
-1613.72 -6382.19 0
0 0 0

-2994.91 1770.01 0
1770.01 1670.16 0
0 0 0

-3287.94 -2137.7 0
-2137.7 -9966.74 0
0 0 0

-3652.79 -234.723 0
-234.723 -1561.32 0
0 0 0

-1867.63 2582.75 0
2582.75 -5513.77 0
0 0 0

-746.217 3314.69 0
3314.69 -1781.66 0
0 0 0

1802.28 -3170.13 0
-3170.13 -3870.33 0
0 0 0

-794.702 -2728.1 0
-2728.1 -2044.23 0
0 0 0

-3212.78 -251.868 0
-251.868 -5242.36 0
0 0 0

-5611.06 939.159 0
939.159 -10148 0
0 0 0

-3334.13 -2498.1 0
-2498.1 -1789.52 0
0 0 0

3446.58 -1840.24 0
-1840.24 -3352.11 0
0 0 0

-130.431 768.471 0
768.471 2164.68 0
0 0 0

-3665.19 -76.6855 0
-76.6855 452.785 0
0 0 0

-6039.48 -794.836 0
-794.836 -4536.25 0
0 0 0

-6252.89 2247.67 0
2247.67 4070 0
0 0 0

2981.18 -481.702 0
-481.702 -7037.1 0
0 0 0

-7641.21 1533.53 0
1533.53 -618.743 0
0 0 0

6475.68 -1465.79 0
-1465.79 -4353.7 0
0 0 0

3550.09 -1775.59 0
-1775.59 3003.39 0
0 0 0

-569.368 -195.328 0
-195.328 661.218 0
0 0 0

-2337.15 -422.676 0
-422.676 -4238.72 0
0 0 0

2440.26 -3024.01 0
-3024.01 471.674 0
0 0 0

-6157.07 -1358.69 0
-1358.69 -5779.23 0
0 0 0

-2024.48 24.2879 0
24.2879 2433.91 0
0 0 0

-552.104 -1337.86 0
-1337.86 -3053.89 0
0 0 0

-335.693 -440.152 0
-440.152 8928.73 0
0 0 0

-2264.56 -2619.52 0
-2619.52 -12234.3 0
0 0 0

-5119.53 -545.972 0
-545.972 4639.32 0
0 0 0

-183.529 -309.247 0
-309.247 -4372.55 0
0 0 0

-4126.11 -82.9474 0
-82.9474 4506.96 0
0 0 0

-7101.54 -1936.96 0
-1936.96 214.13 0
0 0 0

-2488.17 1685.16 0
1685.16 -288.652 0
0 0 0

-5087.68 -235.414 0
-235.414 2778.02 0
0 0 0

-1261.34 1432.06 0
1432.06 -1712.87 0
0 0 0

323.155 -1154.73 0
-1154.73 4933.56 0
0 0 0

-3633.12 222.685 0
222.685 -4793.04 0
0 0 0

-518.092 -999.814 0
-999.814 -3149.26 0
0 0 0

-1289.05 2091.05 0
2091.05 2586.69 0
0 0 0

-686.735 865.438 0
865.438 1097.27 0
0 0 0

-4355.58 264.934 0
264.934 3660.99 0
0 0 0

1984.99 -328.241 0
-328.241 146.255 0
0 0 0

-130.797 199.116 0
199.116 5231.4 0
0 0 0

615.25 174.593 0
174.593 273.408 0
0 0 0

-2122.17 785.593 0
785.593 1865.76 0
0 0 0

-677.878 -1808.9 0
-1808.9 -278.625 0
0 0 0

-1440.01 -2021.04 0
-2021.04 2734.28 0
0 0 0

-2051.01 -1951.08 0
-1951.08 925.503 0
0 0 0

TENSORS velocity_gradient double
-4.2397 -2.52054 0
0.763708 11.683 0
0 0 0

-1.9649 -0.47206 0
1.605 4.60457 0
0 0 0

-5.51563 0.742381 0
-0.794681 11.7749 0
0 0 0

-2.91598 1.61486 0
0.533849 5.78793 0
0 0 0

-0.0465461 -0.862241 0
2.68096 4.38572 0
0 0 0

0.582097 -2.14118 0
3.32207 3.6758 0
0 0 0

-0.259846 1.3285 0
2.37556 5.61933 0
0 0 0

0.481138 -3.07671 0
3.3369 3.81322 0
0 0 0

-0.254882 -1.96619 0
3.44502 3.65009 0
0 0 0

-0.511129 -6.82494 0
3.96361 0.763352 0
0 0 0

-0.382853 -2.94282 0
3.46382 3.79355 0
0 0 0

-0.456302 -6.02602 0
4.04443 1.94105 0
0 0 0

0.268341 -6.80687 0
5.11264 0.78999 0
0 0 0

0.975678 -5.59844 0
6.05554 -0.335099 0
0 0 0

0.320807 -6.03297 0
5.18998 1.9308 0
0 0 0

1.0495 -4.89206 0
6.13537 0.428845 0
0 0 0

-6.10721 3.08059 0
-1.62804 10.2402 0
0 0 0

-4.11209 3.64867 0
-0.817535 7.02514 0
0 0 0

-5.59523 4.8635 0
0.857511 9.92463 0
0 0 0

-4.03398 5.68639 0
-0.0748739 8.10016 0
0 0 0

-2.11005 3.17229 0
0.423696 6.78245 0
0 0 0

-1.50359 -3.23856 0
1.56977 4.60546 0
0 0 0

-2.09478 4.66227 0
0.451755 7.88522 0
0 0 0

-1.4991 -3.1087 0
1.61145 5.81089 0
0 0 0

-1.37952 -3.25648 0
2.72146 4.43904 0
0 0 0

-0.672297 -5.21418 0
3.26892 2.72937 0
0 0 0

-1.37237 -3.12551 0
2.78785 5.65483 0
0 0 0

-0.591624 -4.06021 0
3.28919 3.01935 0
0 0 0

0.399899 -5.24323 0
3.53835 2.72207 0
0 0 0

1.25203 -4.23109 0
3.69416 0.958634 0
0 0 0

0.483168 -4.14846 0
3.55927 2.99717 0
0 0 0

1.26388 -3.66194 0
3.56034 0.845792 0
0 0 0

-5.32313 5.631 0
2.38556 10.7368 0
0 0 0

-3.89379 7.34599 0
1.59983 7.30986 0
0 0 0

-2.06095 7.26084 0
0.592792 9.17335 0
0 0 0

-3.19689 9.04473 0
0.755266 5.85529 0
0 0 0

-2.18995 5.41316 0
0.314342 7.20488 0
0 0 0

-0.977938 -2.3581 0
0.309588 6.43248 0
0 0 0

-1.94173 4.64949 0
0.0234965 6.37182 0
0 0 0

-0.831977 -1.25789 0
0.354397 6.77024 0
0 0 0

0.158315 -2.48833 0
0.619596 6.07325 0
0 0 0

1.46307 -2.83304 0
-0.404252 2.63384 0
0 0 0

0.326644 -1.37089 0
0.545202 4.75644 0
0 0 0

1.65301 -1.49565 0
-0.605794 1.21476 0
0 0 0

2.84174 -3.01525 0
-1.80116 2.51194 0
0 0 0

3.35141 -3.00484 0
-1.76449 0.422398 0
0 0 0

3.021 -1.74982 0
-2.10447 0.546379 0
0 0 0

4.199 -1.98266 0
-3.86442 -1.16193 0
0 0 0

-1.80222 8.60822 0
0.258359 5.13657 0
0 0 0

-1.11075 10.0497 0
-2.38932 3.35969 0
0 0 0

-0.836366 10.0293 0
-1.68969 0.366527 0
0 0 0

-1.14831 10.8373 0
-2.71519 0.582967 0
0 0 0

-0.246715 3.4507 0
-4.72513 5.92273 0
0 0 0

0.615191 -0.26052 0
-4.64951 7.13574 0
0 0 0

-0.408665 1.91328 0
-4.77162 6.79143 0
0 0 0

0.758645 0.670456 0
-4.58873 7.53021 0
0 0 0

1.34498 -0.574919 0
-4.19288 3.98755 0
0 0 0

1.05268 -0.735096 0
-3.22833 0.583404 0
0 0 0

1.38945 -1.00543 0
-4.0554 2.43079 0
0 0 0

0.960539 -1.20643 0
-3.02351 1.63121 0
0 0 0

1.39963 -0.697549 0
-2.20247 -1.08933 0
0 0 0

3.38359 -0.852382 0
-2.47531 -2.42358 0
0 0 0

1.0648 1.1181 0
-1.95451 -1.38065 0
0 0 0

2.9617 0.99926 0
-0.833185 -1.63041 0
0 0 0

SCALARS active double 1
LOOKUP_TABLE default
1
1
1
1
1
1
1
1
1
1
1
1
1
1
1
1
1
1
1
1
1
1
1
1
1
1
1
1
1
1
1
1
1
1
1
1
1
1
1
1
1
1
1
1
1
1
1
1
1
1
1
1
1
1
1
1
1
1
1
1
1
1
1
1
SCALARS extent double 1
LOOKUP_TABLE default
0.0125
0.0125
0.0125
0.0125
0.0125
0.0125
0.0125
0.0125
0.0125
0.0125
0.0125
0.0125
0.0125
0.0125
0.0125
0.0125
0.0125
0.0125
0.0125
0.0125
0.0125
0.0125
0.0125
0.0125
0.0125
0.0125
0.0125
0.0125
0.0125
0.0125
0.0125
0.0125
0.0125
0.0125
0.0125
0.0125
0.0125
0.0125
0.0125
0.0125
0.0125
0.0125
0.0125
0.0125
0.0125
0.0125
0.0125
0.0125
0.0125
0.0125
0.0125
0.0125
0.0125
0.0125
0.0125
0.0125
0.0125
0.0125
0.0125
0.0125
0.0125
0.0125
0.0125
0.0125
SCALARS pressure double 1
LOOKUP_TABLE default
6600.49
1219.89
12304.7
3523.56
3749.26
-193.793
5079.1
2456.3
1560.9
-464.015
3012.03
-620.034
2240.3
649.315
859.012
739.198
3204.07
662.372
6627.34
2607.05
3690.7
1263.94
1034.03
1419.47
4227.57
7879.52
2561.82
-47.2349
-1017.13
1606.2
5287.87
1091.45
2027.96
4129.98
-1060.99
-3276.74
-45.9249
3287.93
-1455.97
5968.15
-204.712
1803
-4296.52
7249.45
240.106
2278.04
-190.426
3443.7
1388.41
1154.83
1487.1
-2628.36
4213.08
1833.67
-648.82
-205.266
347.299
-1065.62
-2550.3
-444.329
128.204
478.252
-647.138
562.756
SCALARS density double 1
LOOKUP_TABLE default
1071.06
1012.77
1136.52
1037.32
1039.76
997.987
1054.24
1025.87
1016.37
995.186
1031.82
993.572
1023.57
1006.78
1008.97
1007.72
1033.88
1006.91
1071.36
1027.48
1039.13
1013.23
1010.81
1014.87
1044.95
1085.4
1027
999.509
989.478
1016.84
1056.53
1011.42
1021.31
1043.89
989.026
966.496
999.522
1034.79
984.972
1064.04
997.873
1018.93
956.3
1078.31
1002.5
1023.97
998.022
1036.46
1014.54
1012.08
1015.59
973.035
1044.79
1019.25
993.275
997.868
1003.62
988.979
973.826
995.39
1001.33
1004.99
993.292
1005.87
