# vtk DataFile Version 3.0
Frame: 20, Time: 0.35
ASCII
DATASET UNSTRUCTURED_GRID
POINTS 64 double
0.521539 0.220728 0 
0.538804 0.239191 0 
0.541499 0.207258 0 
0.559723 0.225493 0 
0.552557 0.257949 0 
0.565384 0.277566 0 
0.574627 0.244721 0 
0.587371 0.265778 0 
0.577294 0.298635 0 
0.58971 0.320792 0 
0.599888 0.28763 0 
0.611858 0.309574 0 
0.603101 0.342892 0 
0.616552 0.36496 0 
0.624905 0.33132 0 
0.639077 0.352516 0 
0.561361 0.191091 0 
0.577238 0.209017 0 
0.58087 0.171397 0 
0.59585 0.191613 0 
0.592971 0.227618 0 
0.605617 0.249222 0 
0.611123 0.211452 0 
0.624443 0.233771 0 
0.618908 0.272134 0 
0.631849 0.294597 0 
0.637331 0.257055 0 
0.650832 0.27981 0 
0.645382 0.316722 0 
0.659991 0.3376 0 
0.664863 0.301845 0 
0.679901 0.323463 0 
0.600786 0.155794 0 
0.615126 0.176547 0 
0.619505 0.141129 0 
0.634746 0.162192 0 
0.62995 0.197935 0 
0.643409 0.220207 0 
0.649673 0.183874 0 
0.662423 0.205386 0 
0.656372 0.243343 0 
0.669597 0.265787 0 
0.675447 0.227582 0 
0.689103 0.250335 0 
0.683697 0.287355 0 
0.698694 0.309371 0 
0.702849 0.27269 0 
0.717018 0.295079 0 
0.639281 0.127353 0 
0.654689 0.148182 0 
0.658597 0.111527 0 
0.674087 0.132922 0 
0.669823 0.169466 0 
0.683268 0.191583 0 
0.689957 0.155989 0 
0.704403 0.179589 0 
0.69631 0.214844 0 
0.710435 0.23752 0 
0.717428 0.202833 0 
0.732227 0.225189 0 
0.723471 0.259804 0 
0.736004 0.28239 0 
0.745646 0.247575 0 
0.756975 0.270797 0 
CELLS 64 128
1 0
1 1
1 2
1 3
1 4
1 5
1 6
1 7
1 8
1 9
1 10
1 11
1 12
1 13
1 14
1 15
1 16
1 17
1 18
1 19
1 20
1 21
1 22
1 23
1 24
1 25
1 26
1 27
1 28
1 29
1 30
1 31
1 32
1 33
1 34
1 35
1 36
1 37
1 38
1 39
1 40
1 41
1 42
1 43
1 44
1 45
1 46
1 47
1 48
1 49
1 50
1 51
1 52
1 53
1 54
1 55
1 56
1 57
1 58
1 59
1 60
1 61
1 62
1 63
CELL_TYPES 64
1
1
1
1
1
1
1
1
1
1
1
1
1
1
1
1
1
1
1
1
1
1
1
1
1
1
1
1
1
1
1
1
1
1
1
1
1
1
1
1
1
1
1
1
1
1
1
1
1
1
1
1
1
1
1
1
1
1
1
1
1
1
1
1
POINT_DATA 64
VECTORS displacement double
0.00903858 -0.391772 0 
0.0263038 -0.398309 0 
0.00399875 -0.405242 0 
0.0222231 -0.412007 0 
0.040057 -0.404551 0 
0.0528837 -0.409934 0 
0.0371269 -0.417779 0 
0.0498709 -0.421722 0 
0.0647935 -0.413865 0 
0.0772101 -0.416708 0 
0.0623881 -0.42487 0 
0.0743584 -0.427926 0 
0.0906013 -0.419608 0 
0.104052 -0.42254 0 
0.0874051 -0.43118 0 
0.101577 -0.434984 0 
-0.00113887 -0.421409 0 
0.0147377 -0.428483 0 
-0.00663019 -0.441103 0 
0.00835015 -0.445887 0 
0.0304709 -0.434882 0 
0.0431168 -0.438278 0 
0.0236235 -0.451048 0 
0.0369429 -0.453729 0 
0.0564078 -0.440366 0 
0.0693495 -0.442903 0 
0.0498312 -0.455445 0 
0.0633318 -0.45769 0 
0.0828825 -0.445778 0 
0.097491 -0.4499 0 
0.0773631 -0.460655 0 
0.0924014 -0.464037 0 
-0.0117139 -0.456706 0 
0.00262636 -0.460953 0 
-0.0179948 -0.471371 0 
-0.0027539 -0.475308 0 
0.0174498 -0.464565 0 
0.0309095 -0.467293 0 
0.012173 -0.478626 0 
0.0249227 -0.482114 0 
0.0438724 -0.469157 0 
0.0570974 -0.471713 0 
0.037947 -0.484918 0 
0.0516031 -0.487165 0 
0.0711972 -0.475145 0 
0.0861937 -0.478129 0 
0.0653494 -0.48981 0 
0.0795179 -0.492421 0 
-0.0232188 -0.485147 0 
-0.00781099 -0.489318 0 
-0.0289034 -0.500973 0 
-0.0134134 -0.504578 0 
0.00732336 -0.493034 0 
0.0207678 -0.495917 0 
0.00245661 -0.506511 0 
0.0169031 -0.507911 0 
0.0338099 -0.497656 0 
0.0479348 -0.49998 0 
0.0299277 -0.509667 0 
0.0447273 -0.512311 0 
0.0609707 -0.502696 0 
0.0735037 -0.50511 0 
0.0581463 -0.514925 0 
0.0694753 -0.516703 0 
VECTORS velocity double
0.358529 2.43346 0 
1.29999 2.77459 0 
-0.910814 1.90735 0 
0.440051 1.85614 0 
1.09679 2.40509 0 
1.70173 2.44379 0 
0.918696 1.62511 0 
1.32223 1.64894 0 
2.81856 2.55794 0 
3.67657 2.48858 0 
1.98152 1.56713 0 
2.62115 1.17447 0 
4.27696 2.42737 0 
5.1993 1.79888 0 
3.44721 1.05797 0 
4.82373 0.548911 0 
-0.684779 2.14906 0 
0.0144616 1.57412 0 
-0.261246 1.81606 0 
-0.0676566 1.47471 0 
0.437104 1.36489 0 
1.09528 1.21515 0 
-0.0383377 1.30327 0 
0.757229 1.11697 0 
1.80935 0.997431 0 
2.36988 0.768339 0 
1.72356 0.853591 0 
2.23147 0.675303 0 
3.03952 0.755899 0 
4.68993 0.0302369 0 
2.66231 0.810802 0 
4.42353 0.0867938 0 
-0.35387 2.12731 0 
0.270416 1.80289 0 
-0.650047 2.50913 0 
0.277985 2.0782 0 
0.332572 1.56175 0 
0.630968 1.55102 0 
0.460421 1.62622 0 
0.539965 1.45141 0 
1.68865 1.35922 0 
2.27407 1.02515 0 
1.31657 1.25611 0 
2.1913 0.894602 0 
2.52027 0.729669 0 
3.92993 -0.0664964 0 
2.6548 0.384723 0 
3.69833 -0.32061 0 
-0.3107 2.03554 0 
0.121559 1.27136 0 
-1.00709 0.857345 0 
-0.634801 0.371254 0 
0.344694 0.903283 0 
0.582263 0.739001 0 
-0.25107 0.0257804 0 
-0.0504665 -0.550022 0 
1.23342 0.643508 0 
1.88491 0.165991 0 
0.352446 -1.28203 0 
0.939455 -1.83905 0 
2.42673 -0.379921 0 
3.51738 -1.01411 0 
1.78066 -1.91376 0 
3.1154 -2.386 0 
SCALARS mass double 1
LOOKUP_TABLE default
0.625
0.625
0.625
0.625
0.625
0.625
0.625
0.625
0.625
0.625
0.625
0.625
0.625
0.625
0.625
0.625
0.625
0.625
0.625
0.625
0.625
0.625
0.625
0.625
0.625
0.625
0.625
0.625
0.625
0.625
0.625
0.625
0.625
0.625
0.625
0.625
0.625
0.625
0.625
0.625
0.625
0.625
0.625
0.625
0.625
0.625
0.625
0.625
0.625
0.625
0.625
0.625
0.625
0.625
0.625
0.625
0.625
0.625
0.625
0.625
0.625
0.625
0.625
0.625
SCALARS volume double 1
LOOKUP_TABLE default
0.000622903
0.000622702
0.000617351
0.000597034
0.00061151
0.000617141
0.000588128
0.000606604
0.000641308
0.000628276
0.000619379
0.000627195
0.000642215
0.000638625
0.000630672
0.000643026
0.000652071
0.000607025
0.000700194
0.000629071
0.000601996
0.000613666
0.000590897
0.00062605
0.000625936
0.000614918
0.000648411
0.0006117
0.000639558
0.000624855
0.000635785
0.000603659
0.000571384
0.000634063
0.000619873
0.000655566
0.000596349
0.00060253
0.00063686
0.000639941
0.00061029
0.000593903
0.000660623
0.000664987
0.000615136
0.000615078
0.000633493
0.000600794
0.000627223
0.000640638
0.000636461
0.000647023
0.000627858
0.000631984
0.000658623
0.000656727
0.000643998
0.00064557
0.000650274
0.000664579
0.000626829
0.000598838
0.000657937
0.000639949
VECTORS momentum double
0.224081 1.52091 0 
0.812492 1.73412 0 
-0.569259 1.19209 0 
0.275032 1.16009 0 
0.685494 1.50318 0 
1.06358 1.52737 0 
0.574185 1.01569 0 
0.826392 1.03059 0 
1.7616 1.59872 0 
2.29786 1.55536 0 
1.23845 0.979456 0 
1.63822 0.734041 0 
2.6731 1.51711 0 
3.24956 1.1243 0 
2.1545 0.661234 0 
3.01483 0.343069 0 
-0.427987 1.34316 0 
0.0090385 0.983825 0 
-0.163279 1.13504 0 
-0.0422854 0.921696 0 
0.27319 0.853055 0 
0.684548 0.759468 0 
-0.023961 0.814545 0 
0.473268 0.698106 0 
1.13085 0.623394 0 
1.48117 0.480212 0 
1.07723 0.533494 0 
1.39467 0.422064 0 
1.8997 0.472437 0 
2.93121 0.0188981 0 
1.66394 0.506751 0 
2.76471 0.0542462 0 
-0.221169 1.32957 0 
0.16901 1.12681 0 
-0.406279 1.5682 0 
0.173741 1.29888 0 
0.207857 0.976094 0 
0.394355 0.969386 0 
0.287763 1.01639 0 
0.337478 0.907132 0 
1.0554 0.849512 0 
1.42129 0.640718 0 
0.822858 0.785072 0 
1.36956 0.559126 0 
1.57517 0.456043 0 
2.4562 -0.0415603 0 
1.65925 0.240452 0 
2.31146 -0.200381 0 
-0.194188 1.27221 0 
0.0759745 0.794598 0 
-0.629433 0.53584 0 
-0.39675 0.232034 0 
0.215434 0.564552 0 
0.363914 0.461876 0 
-0.156919 0.0161128 0 
-0.0315416 -0.343764 0 
0.77089 0.402192 0 
1.17807 0.103744 0 
0.220279 -0.801268 0 
0.58716 -1.14941 0 
1.51671 -0.237451 0 
2.19836 -0.633817 0 
1.11291 -1.1961 0 
1.94713 -1.49125 0 
VECTORS body_force double
0 -9.81 0 
0 -9.81 0 
0 -9.81 0 
0 -9.81 0 
0 -9.81 0 
0 -9.81 0 
0 -9.81 0 
0 -9.81 0 
0 -9.81 0 
0 -9.81 0 
0 -9.81 0 
0 -9.81 0 
0 -9.81 0 
0 -9.81 0 
0 -9.81 0 
0 -9.81 0 
0 -9.81 0 
0 -9.81 0 
0 -9.81 0 
0 -9.81 0 
0 -9.81 0 
0 -9.81 0 
0 -9.81 0 
0 -9.81 0 
0 -9.81 0 
0 -9.81 0 
0 -9.81 0 
0 -9.81 0 
0 -9.81 0 
0 -9.81 0 
0 -9.81 0 
0 -9.81 0 
0 -9.81 0 
0 -9.81 0 
0 -9.81 0 
0 -9.81 0 
0 -9.81 0 
0 -9.81 0 
0 -9.81 0 
0 -9.81 0 
0 -9.81 0 
0 -9.81 0 
0 -9.81 0 
0 -9.81 0 
0 -9.81 0 
0 -9.81 0 
0 -9.81 0 
0 -9.81 0 
0 -9.81 0 
0 -9.81 0 
0 -9.81 0 
0 -9.81 0 
0 -9.81 0 
0 -9.81 0 
0 -9.81 0 
0 -9.81 0 
0 -9.81 0 
0 -9.81 0 
0 -9.81 0 
0 -9.81 0 
0 -9.81 0 
0 -9.81 0 
0 -9.81 0 
0 -9.81 0 
TENSORS cauchy_stress double
3754.85 4438.14 0
4438.14 -4401.17 0
0 0 0

5243.75 376.133 0
376.133 -5952.1 0
0 0 0

4023.38 4240.48 0
4240.48 -6391.48 0
0 0 0

1859.79 4576.33 0
4576.33 -10663.1 0
0 0 0

4207.42 -3135.16 0
-3135.16 -8403.75 0
0 0 0

4487.59 -414.847 0
-414.847 -6921.16 0
0 0 0

-7841.79 -2446.54 0
-2446.54 -3851.79 0
0 0 0

-5350.31 875.156 0
875.156 -394.972 0
0 0 0

5670.54 1606.13 0
1606.13 -716.984 0
0 0 0

2927.86 3042.89 0
3042.89 -1922.4 0
0 0 0

-2580.12 -492.727 0
-492.727 842.681 0
0 0 0

-567.845 17.115 0
17.115 1241.91 0
0 0 0

5053.95 4599.26 0
4599.26 171.404 0
0 0 0

3061.89 -201.999 0
-201.999 1085.27 0
0 0 0

1259.88 1130.31 0
1130.31 477.474 0
0 0 0

3396.94 -254.973 0
-254.973 2070.97 0
0 0 0

-570.444 -6438.49 0
-6438.49 8724.54 0
0 0 0

-4722.81 -1020.59 0
-1020.59 -889.075 0
0 0 0

6393.86 -4118.59 0
-4118.59 15453.5 0
0 0 0

-1096.06 -1867.64 0
-1867.64 2344.7 0
0 0 0

-11955.6 -3811.37 0
-3811.37 4744.07 0
0 0 0

-10966 -2334.18 0
-2334.18 7446.69 0
0 0 0

-6825.38 4784.72 0
4784.72 -3965.14 0
0 0 0

-4710.82 749.292 0
749.292 5033.71 0
0 0 0

-8821.16 1384.22 0
1384.22 9108.79 0
0 0 0

-7882.48 -1149.19 0
-1149.19 4755.07 0
0 0 0

-1940.03 2092.22 0
2092.22 9011.88 0
0 0 0

-6116.86 1625.45 0
1625.45 1980.26 0
0 0 0

-1498.34 373.83 0
373.83 5926.36 0
0 0 0

47.2835 464.526 0
464.526 -91.7836 0
0 0 0

-2206.18 2517.69 0
2517.69 5496.36 0
0 0 0

-3429.48 2998.38 0
2998.38 -3251.57 0
0 0 0

-11016.3 815.016 0
815.016 -6231.78 0
0 0 0

-1414.91 3553.66 0
3553.66 4183.6 0
0 0 0

-3028.19 2993.72 0
2993.72 1444.28 0
0 0 0

2905.66 2807.71 0
2807.71 6276.46 0
0 0 0

-7012.79 2354.44 0
2354.44 -2011.23 0
0 0 0

-10019.8 3023.76 0
3023.76 2978.42 0
0 0 0

-1076.48 -333.495 0
-333.495 4691.46 0
0 0 0

-4272.48 -5401.55 0
-5401.55 8815.76 0
0 0 0

-9030.26 2213.98 0
2213.98 4449.95 0
0 0 0

-9586.23 1272.48 0
1272.48 -228.218 0
0 0 0

137.469 -496.839 0
-496.839 10522.3 0
0 0 0

1985.39 126.338 0
126.338 9940.8 0
0 0 0

-5975.61 2365.64 0
2365.64 2916.27 0
0 0 0

-4386.95 4177.95 0
4177.95 1309.52 0
0 0 0

-2391.98 2041.94 0
2041.94 4987.72 0
0 0 0

-8307.48 4313.11 0
4313.11 711.382 0
0 0 0

642.582 1338.13 0
1338.13 40.3161 0
0 0 0

601.482 959.996 0
959.996 4150.86 0
0 0 0

-1671.84 627.16 0
627.16 5166.42 0
0 0 0

1380.56 3428.29 0
3428.29 5279.08 0
0 0 0

-452.569 2002.94 0
2002.94 1330.04 0
0 0 0

-1548.2 1376.69 0
1376.69 3685.22 0
0 0 0

3547.87 6542.3 0
6542.3 6528.88 0
0 0 0

3558.91 4689.74 0
4689.74 5963.41 0
0 0 0

2530.41 5168.78 0
5168.78 3227.91 0
0 0 0

2771.26 2580.93 0
2580.93 3455.95 0
0 0 0

5460.11 4744.55 0
4744.55 2163.44 0
0 0 0

9296.29 4693.43 0
4693.43 2511.89 0
0 0 0

-1844.61 189.814 0
189.814 2406.46 0
0 0 0

-7283.77 3123.15 0
3123.15 -939.307 0
0 0 0

5790.21 231.963 0
231.963 4086.28 0
0 0 0

2311.92 2154.99 0
2154.99 2233.73 0
0 0 0

TENSORS velocity_gradient double
-7.27388 13.8719 0
-8.67044 6.58652 0
0 0 0

-2.79867 17.9933 0
-10.495 4.90625 0
0 0 0

-10.1909 17.8546 0
-7.27415 4.31725 0
0 0 0

5.12938 20.7356 0
-10.9616 2.4338 0
0 0 0

2.94461 31.3281 0
-14.1519 8.12963 0
0 0 0

2.80299 31.1605 0
-17.9021 6.90719 0
0 0 0

4.88152 20.551 0
-13.6704 0.416579 0
0 0 0

3.68917 29.4216 0
-16.4563 4.07015 0
0 0 0

1.37134 30.7025 0
-20.4461 5.52568 0
0 0 0

2.33469 33.0194 0
-21.4234 5.45399 0
0 0 0

3.7774 28.4546 0
-17.3668 2.44884 0
0 0 0

5.34564 33.0519 0
-17.2496 3.67403 0
0 0 0

3.01866 33.4784 0
-22.2621 4.79613 0
0 0 0

-1.66674 18.9406 0
-20.3168 -0.183589 0
0 0 0

2.90864 31.6861 0
-20.909 1.62309 0
0 0 0

0.27219 20.6723 0
-22.707 3.77845 0
0 0 0

5.03539 5.28261 0
-5.66558 -3.1341 0
0 0 0

5.33763 20.5084 0
-8.68569 -0.0483253 0
0 0 0

4.31448 5.99666 0
-2.01037 -6.75447 0
0 0 0

5.55056 6.61536 0
-5.85151 -9.11189 0
0 0 0

5.09749 20.3131 0
-11.3101 -2.18279 0
0 0 0

9.96419 22.8609 0
-7.92161 -1.82723 0
0 0 0

9.55644 20.6605 0
-4.74053 -3.76937 0
0 0 0

10.4908 21.1893 0
-5.83218 -4.38718 0
0 0 0

9.14852 26.6274 0
-10.5233 -0.862515 0
0 0 0

6.897 25.4101 0
-14.6942 -3.11764 0
0 0 0

10.6095 24.6936 0
-7.79558 -4.30859 0
0 0 0

8.58514 23.7654 0
-12.9711 -6.05896 0
0 0 0

4.48596 29.3701 0
-18.5405 -1.85461 0
0 0 0

0.768597 27.0946 0
-11.5619 -2.86511 0
0 0 0

8.32882 24.8682 0
-13.155 -4.02107 0
0 0 0

3.9325 22.4878 0
-12.0742 -1.9265 0
0 0 0

3.99477 6.58498 0
-6.84999 -7.85534 0
0 0 0

6.32185 8.38166 0
-8.88472 -7.49308 0
0 0 0

1.54796 7.06217 0
-14.8564 -1.60856 0
0 0 0

4.72532 10.585 0
-11.5045 -3.87758 0
0 0 0

8.65057 12.4987 0
-5.22245 -4.79452 0
0 0 0

9.9286 21.9817 0
-5.17534 -5.313 0
0 0 0

4.71464 12.1836 0
-14.9972 -1.69838 0
0 0 0

3.83457 21.9802 0
-23.4524 -3.41587 0
0 0 0

8.18616 22.8483 0
-16.3578 -4.77631 0
0 0 0

8.81835 23.5508 0
-15.4608 -5.78677 0
0 0 0

6.20481 24.8398 0
-20.0736 -1.90043 0
0 0 0

8.34569 25.0146 0
-16.7478 -2.13877 0
0 0 0

9.06755 23.7041 0
-14.0247 -4.90326 0
0 0 0

6.22765 18.2203 0
-14.2227 -0.867247 0
0 0 0

4.82723 23.9041 0
-23.6368 -3.3453 0
0 0 0

1.02033 22.8409 0
-28.1142 -0.950908 0
0 0 0

-0.950981 10.7529 0
-16.615 0.988803 0
0 0 0

-0.752952 12.4681 0
-22.1701 0.423301 0
0 0 0

-0.299953 12.3947 0
-15.1704 0.221071 0
0 0 0

-0.973875 11.9214 0
-20.2074 -3.31579 0
0 0 0

0.287311 14.2222 0
-24.3397 -1.02963 0
0 0 0

2.489 15.5058 0
-24.2962 -1.00428 0
0 0 0

-0.942061 15.9505 0
-24.2835 -1.32053 0
0 0 0

-2.15462 16.9149 0
-29.2976 -1.74393 0
0 0 0

4.07398 27.0522 0
-23.3823 1.25909 0
0 0 0

-0.215254 28.3527 0
-34.7818 1.8407 0
0 0 0

-3.13316 26.0692 0
-33.3815 0.343323 0
0 0 0

-1.25905 30.3545 0
-34.3691 1.04931 0
0 0 0

0.958448 24.0297 0
-33.6306 -0.383267 0
0 0 0

1.07571 24.0908 0
-30.0768 1.46965 0
0 0 0

0.584524 28.5013 0
-34.6979 1.61424 0
0 0 0

2.45359 21.2312 0
-25.3475 3.2025 0
0 0 0

SCALARS active double 1
LOOKUP_TABLE default
1
1
1
1
1
1
1
1
1
1
1
1
1
1
1
1
1
1
1
1
1
1
1
1
1
1
1
1
1
1
1
1
1
1
1
1
1
1
1
1
1
1
1
1
1
1
1
1
1
1
1
1
1
1
1
1
1
1
1
1
1
1
1
1
SCALARS extent double 1
LOOKUP_TABLE default
0.0125
0.0125
0.0125
0.0125
0.0125
0.0125
0.0125
0.0125
0.0125
0.0125
0.0125
0.0125
0.0125
0.0125
0.0125
0.0125
0.0125
0.0125
0.0125
0.0125
0.0125
0.0125
0.0125
0.0125
0.0125
0.0125
0.0125
0.0125
0.0125
0.0125
0.0125
0.0125
0.0125
0.0125
0.0125
0.0125
0.0125
0.0125
0.0125
0.0125
0.0125
0.0125
0.0125
0.0125
0.0125
0.0125
0.0125
0.0125
0.0125
0.0125
0.0125
0.0125
0.0125
0.0125
0.0125
0.0125
0.0125
0.0125
0.0125
0.0125
0.0125
0.0125
0.0125
0.0125
SCALARS pressure double 1
LOOKUP_TABLE default
323.157
354.174
1184.05
4401.66
2098.16
1216.78
5846.79
2872.64
-2476.78
-502.727
868.719
-337.031
-2612.68
-2073.58
-868.679
-2733.96
-4077.05
2805.94
-10923.7
-624.32
3605.78
1759.68
5395.26
-161.444
-143.816
1563.71
-3535.93
2068.3
-2214.01
22.2501
-1645.09
3340.52
8624.04
-1384.34
791.956
-4591.06
4512.01
3520.67
-1807.49
-2271.64
2290.16
4907.23
-5329.91
-5963.09
1529.67
1538.71
-1297.87
3798.05
-341.449
-2376.17
-1747.29
-3329.82
-438.737
-1068.51
-5038.38
-4761.16
-2879.16
-3113.6
-3811.78
-5904.09
-280.929
4111.54
-4938.24
-2272.82
SCALARS density double 1
LOOKUP_TABLE default
1003.37
1003.69
1012.39
1046.84
1022.06
1012.73
1062.69
1030.33
974.57
994.785
1009.08
996.501
973.194
978.666
991.006
971.967
958.485
1029.61
892.609
993.528
1038.21
1018.47
1057.71
998.322
998.505
1016.4
963.894
1021.74
977.237
1000.23
983.037
1035.35
1093.84
985.706
1008.27
953.375
1048.04
1037.29
981.378
976.652
1024.1
1052.36
946.077
939.868
1016.04
1016.13
986.593
1040.29
996.455
975.591
981.992
965.963
995.448
988.949
948.95
951.69
970.501
968.137
961.133
940.445
997.083
1043.69
949.939
976.64
