# vtk DataFile Version 3.0
Frame: 56, Time: 0.951
ASCII
DATASET UNSTRUCTURED_GRID
POINTS 64 double
0.37829 0.347479 0 
0.403165 0.341724 0 
0.372702 0.320214 0 
0.399512 0.314472 0 
0.427719 0.336065 0 
0.452603 0.330855 0 
0.42444 0.310469 0 
0.45068 0.304324 0 
0.478394 0.326447 0 
0.504369 0.320183 0 
0.475662 0.299691 0 
0.501527 0.295537 0 
0.529848 0.315651 0 
0.55583 0.312117 0 
0.526885 0.290854 0 
0.552912 0.285492 0 
0.368309 0.297107 0 
0.394178 0.28974 0 
0.361578 0.272852 0 
0.388964 0.266014 0 
0.418939 0.28471 0 
0.444017 0.279799 0 
0.41259 0.259869 0 
0.438254 0.254803 0 
0.469824 0.274635 0 
0.49437 0.27046 0 
0.464228 0.250755 0 
0.488863 0.244923 0 
0.520469 0.26618 0 
0.545642 0.259987 0 
0.514477 0.240672 0 
0.539336 0.23457 0 
0.357569 0.248433 0 
0.382509 0.240339 0 
0.351041 0.223832 0 
0.375317 0.215273 0 
0.406724 0.234996 0 
0.432376 0.229065 0 
0.401326 0.209416 0 
0.427227 0.204888 0 
0.458185 0.224315 0 
0.483441 0.219857 0 
0.45124 0.199262 0 
0.476379 0.195508 0 
0.508112 0.214649 0 
0.533143 0.208815 0 
0.501449 0.1895 0 
0.526015 0.18383 0 
0.343141 0.198867 0 
0.36853 0.191693 0 
0.338129 0.17305 0 
0.364877 0.167949 0 
0.395247 0.185819 0 
0.421571 0.179907 0 
0.390199 0.161981 0 
0.414133 0.152904 0 
0.446317 0.174893 0 
0.470721 0.170986 0 
0.439836 0.147388 0 
0.465485 0.144115 0 
0.497719 0.164389 0 
0.522589 0.159337 0 
0.490357 0.138224 0 
0.51769 0.13424 0 
CELLS 64 128
1 0
1 1
1 2
1 3
1 4
1 5
1 6
1 7
1 8
1 9
1 10
1 11
1 12
1 13
1 14
1 15
1 16
1 17
1 18
1 19
1 20
1 21
1 22
1 23
1 24
1 25
1 26
1 27
1 28
1 29
1 30
1 31
1 32
1 33
1 34
1 35
1 36
1 37
1 38
1 39
1 40
1 41
1 42
1 43
1 44
1 45
1 46
1 47
1 48
1 49
1 50
1 51
1 52
1 53
1 54
1 55
1 56
1 57
1 58
1 59
1 60
1 61
1 62
1 63
CELL_TYPES 64
1
1
1
1
1
1
1
1
1
1
1
1
1
1
1
1
1
1
1
1
1
1
1
1
1
1
1
1
1
1
1
1
1
1
1
1
1
1
1
1
1
1
1
1
1
1
1
1
1
1
1
1
1
1
1
1
1
1
1
1
1
1
1
1
POINT_DATA 64
VECTORS displacement double
-0.13421 -0.265021 0 
-0.109335 -0.295776 0 
-0.164798 -0.292286 0 
-0.137988 -0.323028 0 
-0.0847811 -0.326435 0 
-0.059897 -0.356645 0 
-0.11306 -0.352031 0 
-0.0868201 -0.383176 0 
-0.0341057 -0.386053 0 
-0.0081307 -0.417317 0 
-0.0618382 -0.412809 0 
-0.0359729 -0.441963 0 
0.0173482 -0.446849 0 
0.04333 -0.475383 0 
-0.0106145 -0.471646 0 
0.0154121 -0.502008 0 
-0.194191 -0.315393 0 
-0.168322 -0.34776 0 
-0.225922 -0.339648 0 
-0.198536 -0.371486 0 
-0.143561 -0.37779 0 
-0.118483 -0.407701 0 
-0.17491 -0.402631 0 
-0.149246 -0.432697 0 
-0.0926755 -0.437865 0 
-0.0681303 -0.46704 0 
-0.123272 -0.461745 0 
-0.0986366 -0.492577 0 
-0.0420305 -0.49632 0 
-0.0168576 -0.527513 0 
-0.0730231 -0.521828 0 
-0.0481644 -0.55293 0 
-0.254931 -0.364067 0 
-0.229991 -0.397161 0 
-0.286459 -0.388668 0 
-0.262183 -0.422227 0 
-0.205776 -0.427504 0 
-0.180124 -0.458435 0 
-0.236174 -0.453084 0 
-0.210273 -0.482612 0 
-0.154315 -0.488185 0 
-0.129059 -0.517643 0 
-0.18626 -0.513238 0 
-0.161121 -0.541992 0 
-0.104388 -0.547851 0 
-0.0793566 -0.578685 0 
-0.136051 -0.573 0 
-0.111485 -0.60367 0 
-0.319359 -0.413633 0 
-0.29397 -0.445807 0 
-0.349371 -0.43945 0 
-0.322623 -0.469551 0 
-0.267253 -0.476681 0 
-0.240929 -0.507593 0 
-0.297301 -0.500519 0 
-0.273367 -0.534596 0 
-0.216183 -0.537607 0 
-0.191779 -0.566514 0 
-0.247664 -0.565112 0 
-0.222015 -0.593385 0 
-0.164781 -0.598111 0 
-0.139911 -0.628163 0 
-0.197143 -0.624276 0 
-0.16981 -0.65326 0 
VECTORS velocity double
-0.44912 -0.526466 0 
-0.434285 -0.257526 0 
-0.13427 -0.705426 0 
-0.17481 -0.228349 0 
-0.306525 -0.361801 0 
-0.445874 0.0483359 0 
-0.0562912 -0.362452 0 
0.157534 -0.311874 0 
-0.653824 -0.151146 0 
-0.119017 -0.0660917 0 
-0.1965 0.297748 0 
0.0672139 -0.180375 0 
-0.576258 0.156332 0 
-0.349794 0.39495 0 
0.103322 -0.217928 0 
0.153166 0.509833 0 
-0.172032 -0.521851 0 
0.278596 -0.55554 0 
-0.110512 -0.480281 0 
0.00320804 0.0059501 0 
-0.024735 -0.149031 0 
0.378201 -0.452286 0 
-0.250034 -0.254148 0 
0.00948367 -0.0828267 0 
0.0382203 -0.077841 0 
0.0803982 0.0091156 0 
-0.275482 -0.0444681 0 
0.131269 -0.0831227 0 
0.0868476 -0.171042 0 
0.0903638 0.213948 0 
0.262982 0.124668 0 
0.0390424 0.321046 0 
0.0355246 -0.813664 0 
0.369513 0.0408328 0 
0.503608 -0.586568 0 
0.598748 -0.23032 0 
0.305419 -0.824107 0 
0.428282 -0.618763 0 
0.450681 -0.431747 0 
0.186207 -0.260944 0 
0.464239 -0.12456 0 
0.504796 0.00646288 0 
0.192911 -0.482035 0 
0.546319 0.191188 0 
0.0453954 -0.262934 0 
0.613101 0.124411 0 
0.106693 -0.00531461 0 
0.205149 0.264078 0 
0.192831 -0.32052 0 
0.135572 -0.187165 0 
0.166149 -0.143821 0 
-0.136209 -0.476889 0 
0.507581 -0.315943 0 
-0.0721697 -0.676032 0 
0.912202 0.149475 0 
0.0600598 -0.555631 0 
0.21072 -0.395789 0 
0.548341 0.40809 0 
0.484898 -0.494722 0 
0.949421 -0.129158 0 
0.365838 -0.338127 0 
0.506048 0.226361 0 
0.675767 -0.129895 0 
0.770154 0.128967 0 
SCALARS mass double 1
LOOKUP_TABLE default
0.625
0.625
0.625
0.625
0.625
0.625
0.625
0.625
0.625
0.625
0.625
0.625
0.625
0.625
0.625
0.625
0.625
0.625
0.625
0.625
0.625
0.625
0.625
0.625
0.625
0.625
0.625
0.625
0.625
0.625
0.625
0.625
0.625
0.625
0.625
0.625
0.625
0.625
0.625
0.625
0.625
0.625
0.625
0.625
0.625
0.625
0.625
0.625
0.625
0.625
0.625
0.625
0.625
0.625
0.625
0.625
0.625
0.625
0.625
0.625
0.625
0.625
0.625
0.625
SCALARS volume double 1
LOOKUP_TABLE default
0.000619144
0.000607757
0.000621708
0.000630258
0.000632432
0.000618789
0.000633583
0.000601696
0.000638006
0.000619501
0.000636354
0.000630023
0.00063121
0.00062652
0.000615447
0.000636647
0.000616575
0.000611909
0.000623479
0.000622375
0.000609062
0.0006448
0.000642692
0.000613358
0.000603654
0.000633316
0.000615504
0.000625672
0.000640179
0.000618135
0.000629151
0.000615077
0.000626966
0.000618327
0.000613518
0.00064034
0.000592312
0.000654961
0.000633615
0.000587406
0.000637395
0.000631925
0.000610942
0.000616807
0.000611756
0.000642017
0.000619767
0.000629668
0.000632937
0.000601326
0.000630541
0.000685521
0.000602613
0.000672705
0.000563879
0.000649141
0.000602303
0.000641747
0.000629939
0.000614901
0.000643463
0.000620438
0.000623574
0.000626387
VECTORS momentum double
-0.2807 -0.329041 0 
-0.271428 -0.160954 0 
-0.083919 -0.440891 0 
-0.109256 -0.142718 0 
-0.191578 -0.226126 0 
-0.278671 0.03021 0 
-0.035182 -0.226532 0 
0.0984587 -0.194922 0 
-0.40864 -0.0944665 0 
-0.0743855 -0.0413073 0 
-0.122812 0.186093 0 
0.0420087 -0.112735 0 
-0.360162 0.0977072 0 
-0.218621 0.246844 0 
0.0645764 -0.136205 0 
0.0957289 0.318646 0 
-0.10752 -0.326157 0 
0.174122 -0.347212 0 
-0.06907 -0.300175 0 
0.00200503 0.00371881 0 
-0.0154594 -0.0931444 0 
0.236376 -0.282679 0 
-0.156271 -0.158843 0 
0.0059273 -0.0517667 0 
0.0238877 -0.0486506 0 
0.0502489 0.00569725 0 
-0.172176 -0.0277926 0 
0.0820434 -0.0519517 0 
0.0542798 -0.106901 0 
0.0564774 0.133718 0 
0.164363 0.0779175 0 
0.0244015 0.200654 0 
0.0222029 -0.50854 0 
0.230946 0.0255205 0 
0.314755 -0.366605 0 
0.374218 -0.14395 0 
0.190887 -0.515067 0 
0.267676 -0.386727 0 
0.281676 -0.269842 0 
0.116379 -0.16309 0 
0.29015 -0.07785 0 
0.315497 0.0040393 0 
0.120569 -0.301272 0 
0.341449 0.119492 0 
0.0283721 -0.164334 0 
0.383188 0.077757 0 
0.0666833 -0.00332163 0 
0.128218 0.165049 0 
0.120519 -0.200325 0 
0.0847322 -0.116978 0 
0.103843 -0.0898882 0 
-0.0851309 -0.298056 0 
0.317238 -0.197465 0 
-0.045106 -0.42252 0 
0.570126 0.0934219 0 
0.0375374 -0.34727 0 
0.1317 -0.247368 0 
0.342713 0.255056 0 
0.303061 -0.309201 0 
0.593388 -0.080724 0 
0.228649 -0.211329 0 
0.31628 0.141475 0 
0.422354 -0.0811844 0 
0.481346 0.0806041 0 
VECTORS body_force double
0 -9.81 0 
0 -9.81 0 
0 -9.81 0 
0 -9.81 0 
0 -9.81 0 
0 -9.81 0 
0 -9.81 0 
0 -9.81 0 
0 -9.81 0 
0 -9.81 0 
0 -9.81 0 
0 -9.81 0 
0 -9.81 0 
0 -9.81 0 
0 -9.81 0 
0 -9.81 0 
0 -9.81 0 
0 -9.81 0 
0 -9.81 0 
0 -9.81 0 
0 -9.81 0 
0 -9.81 0 
0 -9.81 0 
0 -9.81 0 
0 -9.81 0 
0 -9.81 0 
0 -9.81 0 
0 -9.81 0 
0 -9.81 0 
0 -9.81 0 
0 -9.81 0 
0 -9.81 0 
0 -9.81 0 
0 -9.81 0 
0 -9.81 0 
0 -9.81 0 
0 -9.81 0 
0 -9.81 0 
0 -9.81 0 
0 -9.81 0 
0 -9.81 0 
0 -9.81 0 
0 -9.81 0 
0 -9.81 0 
0 -9.81 0 
0 -9.81 0 
0 -9.81 0 
0 -9.81 0 
0 -9.81 0 
0 -9.81 0 
0 -9.81 0 
0 -9.81 0 
0 -9.81 0 
0 -9.81 0 
0 -9.81 0 
0 -9.81 0 
0 -9.81 0 
0 -9.81 0 
0 -9.81 0 
0 -9.81 0 
0 -9.81 0 
0 -9.81 0 
0 -9.81 0 
0 -9.81 0 
TENSORS cauchy_stress double
-737.609 -235.805 0
-235.805 -1072.78 0
0 0 0

-2541.5 1533.12 0
1533.12 -2838.51 0
0 0 0

1390.45 -2257.16 0
-2257.16 -2405.9 0
0 0 0

357.997 -1138.58 0
-1138.58 1252.93 0
0 0 0

1063.52 -564.104 0
-564.104 1209.8 0
0 0 0

-2527.53 540.848 0
540.848 607 0
0 0 0

479.045 -1767.02 0
-1767.02 2143.79 0
0 0 0

-3480.73 90.6767 0
90.6767 -3826.81 0
0 0 0

3853 -208.096 0
-208.096 107.752 0
0 0 0

-194.129 -13.3903 0
-13.3903 -1505.5 0
0 0 0

1478.15 -701.25 0
-701.25 1984.12 0
0 0 0

821.182 -2140.65 0
-2140.65 718.032 0
0 0 0

1813.95 949.511 0
949.511 87.4591 0
0 0 0

-1.42078 -1045.06 0
-1045.06 468.539 0
0 0 0

-8.20361 -1110.71 0
-1110.71 -2953.99 0
0 0 0

614.667 807.697 0
807.697 2935.91 0
0 0 0

-127.294 733.449 0
733.449 -2482.56 0
0 0 0

-82.2322 -104.572 0
-104.572 -3988.44 0
0 0 0

3329.9 -1051.24 0
-1051.24 -3798.54 0
0 0 0

-1075.2 -2278.31 0
-2278.31 265.801 0
0 0 0

-3194.35 1919.85 0
1919.85 -1773.35 0
0 0 0

3159.5 1655.62 0
1655.62 2838.35 0
0 0 0

2788.22 -2523.64 0
-2523.64 2579.77 0
0 0 0

-568.628 3538.56 0
3538.56 -3047.16 0
0 0 0

-1113.51 239.784 0
239.784 -5569.16 0
0 0 0

2040.37 3060.75 0
3060.75 501.421 0
0 0 0

-2194.35 147.202 0
147.202 -749.904 0
0 0 0

1748.8 2329.12 0
2329.12 -1542.19 0
0 0 0

2211.15 980.064 0
980.064 2403.54 0
0 0 0

-2143.87 -1543.73 0
-1543.73 19.8651 0
0 0 0

2526.38 3501.76 0
3501.76 -1253.47 0
0 0 0

-2695.9 477.988 0
477.988 -381.913 0
0 0 0

1035.43 1996.14 0
1996.14 -431.515 0
0 0 0

-3201.76 -743.796 0
-743.796 1137.61 0
0 0 0

100.83 210.095 0
210.095 -3666.59 0
0 0 0

4508.31 1964.37 0
1964.37 154.585 0
0 0 0

-4840.51 1699.96 0
1699.96 -5489.9 0
0 0 0

8659.55 -2056.7 0
-2056.7 344.994 0
0 0 0

3608.99 3404.28 0
3404.28 -976.361 0
0 0 0

-8047.94 5.82633 0
5.82633 -3882.1 0
0 0 0

1540.32 4787.51 0
4787.51 2236.32 0
0 0 0

1019.18 -1431.88 0
-1431.88 1099.83 0
0 0 0

-895.901 1517.02 0
1517.02 -3479.1 0
0 0 0

-250.234 128.713 0
128.713 -2287.5 0
0 0 0

-3294.99 332.21 0
332.21 -823.961 0
0 0 0

3948.65 -510.617 0
-510.617 1217.3 0
0 0 0

-487.301 2958.76 0
2958.76 -1129.74 0
0 0 0

2905.48 -981.065 0
-981.065 -1474.41 0
0 0 0

496.565 4014.06 0
4014.06 1930.07 0
0 0 0

12.3063 -4504.46 0
-4504.46 -7438.24 0
0 0 0

-785.731 -1183.56 0
-1183.56 2483.01 0
0 0 0

11214.6 1299.97 0
1299.97 6559.83 0
0 0 0

-2032.81 -3239.63 0
-3239.63 -4982 0
0 0 0

7260.68 -678.383 0
-678.383 6884.65 0
0 0 0

-10509.2 -3546.64 0
-3546.64 -9281.73 0
0 0 0

5008.35 -46.1677 0
-46.1677 2279.75 0
0 0 0

-5920.13 2131.89 0
2131.89 -1193.42 0
0 0 0

4325.75 -62.427 0
-62.427 759.353 0
0 0 0

1350.97 2457.72 0
2457.72 162.853 0
0 0 0

-3676.7 12.6415 0
12.6415 543.794 0
0 0 0

4556.67 131.23 0
131.23 1041.88 0
0 0 0

-1491.14 -184.752 0
-184.752 82.3215 0
0 0 0

1150.23 1002.64 0
1002.64 -1589.43 0
0 0 0

-469.453 -321.297 0
-321.297 895.736 0
0 0 0

TENSORS velocity_gradient double
-0.294202 -4.04446 0
3.66976 0.111865 0
0 0 0

-0.0222813 -5.6596 0
3.98193 -0.392321 0
0 0 0

0.342403 -4.92668 0
3.7221 -0.551018 0
0 0 0

0.322727 -5.60126 0
3.68848 -0.424407 0
0 0 0

0.0605203 -5.76035 0
3.95812 -0.0825072 0
0 0 0

-0.702056 -5.8265 0
3.00042 0.207385 0
0 0 0

0.128749 -5.75121 0
3.62101 -0.127642 0
0 0 0

-0.450338 -5.46735 0
2.98438 0.195269 0
0 0 0

-0.982335 -5.89457 0
2.64463 0.347761 0
0 0 0

-0.642331 -5.96036 0
4.78485 0.415118 0
0 0 0

-0.846089 -4.79426 0
2.57962 0.133679 0
0 0 0

-0.606043 -4.55301 0
4.19308 -0.212678 0
0 0 0

-0.582609 -6.01536 0
5.14746 0.268205 0
0 0 0

-0.12515 -5.47965 0
5.36662 0.292926 0
0 0 0

-0.453797 -4.60555 0
5.06636 0.0833823 0
0 0 0

-0.317137 -5.12305 0
5.49194 0.30638 0
0 0 0

0.760704 -4.6713 0
3.66233 -0.586503 0
0 0 0

0.653989 -3.98041 0
3.65341 -0.645517 0
0 0 0

0.263655 -4.78294 0
3.70346 -0.580077 0
0 0 0

0.092481 -4.1087 0
3.71844 -0.639067 0
0 0 0

-0.0404973 -3.58512 0
3.17667 -0.280885 0
0 0 0

-0.11316 -3.25917 0
3.071 0.220463 0
0 0 0

-0.367902 -3.67004 0
2.67556 -0.410862 0
0 0 0

-0.433994 -3.4175 0
2.57535 0.21138 0
0 0 0

-0.331236 -3.63138 0
2.90702 0.0382547 0
0 0 0

-0.233929 -4.19265 0
3.05255 -0.333096 0
0 0 0

0.137254 -3.70594 0
3.35296 0.385754 0
0 0 0

0.183942 -3.82893 0
3.52802 -0.332472 0
0 0 0

-0.198967 -4.53801 0
4.59575 -0.0413427 0
0 0 0

0.0814156 -4.84702 0
4.79949 0.384965 0
0 0 0

0.0358129 -3.82504 0
4.04882 -0.467471 0
0 0 0

0.0808727 -4.00548 0
3.89053 0.166409 0
0 0 0

-0.136272 -3.96351 0
3.48758 -1.64858 0
0 0 0

-0.0293022 -4.07443 0
3.09512 -0.636906 0
0 0 0

0.181248 -2.94227 0
-1.06429 -2.75965 0
0 0 0

0.732955 -3.85286 0
1.31576 -1.15413 0
0 0 0

-0.65716 -4.54277 0
2.25566 0.712651 0
0 0 0

-0.720391 -4.27172 0
2.16818 1.08766 0
0 0 0

-0.15596 -4.49367 0
1.46923 0.484347 0
0 0 0

-0.933692 -4.06788 0
1.81608 0.916025 0
0 0 0

0.054338 -4.0255 0
4.4041 1.00084 0
0 0 0

0.0212363 -3.84268 0
4.60345 -0.100155 0
0 0 0

-0.311914 -3.39826 0
3.80074 0.626099 0
0 0 0

0.0899058 -3.86994 0
5.40879 0.295381 0
0 0 0

0.224831 -3.77808 0
3.38481 -0.632445 0
0 0 0

0.267833 -3.95975 0
3.23375 0.00576208 0
0 0 0

0.12909 -4.58705 0
4.1022 0.34948 0
0 0 0

-0.151152 -4.0359 0
3.25776 0.0283383 0
0 0 0

1.69824 0.979444 0
-5.41016 -2.36934 0
0 0 0

1.73736 2.66133 0
-0.0553964 -1.48889 0
0 0 0

1.06476 3.40797 0
-4.4875 -1.56428 0
0 0 0

3.31664 2.89891 0
-0.834416 -1.60608 0
0 0 0

1.9242 0.888872 0
-0.0817675 -0.626484 0
0 0 0

0.316725 -0.892961 0
1.48514 -0.175484 0
0 0 0

3.7118 1.22249 0
-1.02934 -0.779148 0
0 0 0

2.13382 -1.53655 0
1.10588 -0.685455 0
0 0 0

0.692468 -2.54462 0
2.1082 0.132995 0
0 0 0

0.997821 -3.64229 0
5.34522 0.284603 0
0 0 0

2.47232 -5.13656 0
0.97544 -0.738197 0
0 0 0

1.48935 -6.15514 0
5.11419 -0.362899 0
0 0 0

0.704953 -4.56938 0
4.82206 0.370057 0
0 0 0

-0.877291 -4.14055 0
3.62852 0.0817711 0
0 0 0

1.19343 -4.95594 0
4.98003 0.182664 0
0 0 0

-0.803917 -4.78497 0
4.16024 -0.00311583 0
0 0 0

SCALARS active double 1
LOOKUP_TABLE default
1
1
1
1
1
1
1
1
1
1
1
1
1
1
1
1
1
1
1
1
1
1
1
1
1
1
1
1
1
1
1
1
1
1
1
1
1
1
1
1
1
1
1
1
1
1
1
1
1
1
1
1
1
1
1
1
1
1
1
1
1
1
1
1
SCALARS extent double 1
LOOKUP_TABLE default
0.0125
0.0125
0.0125
0.0125
0.0125
0.0125
0.0125
0.0125
0.0125
0.0125
0.0125
0.0125
0.0125
0.0125
0.0125
0.0125
0.0125
0.0125
0.0125
0.0125
0.0125
0.0125
0.0125
0.0125
0.0125
0.0125
0.0125
0.0125
0.0125
0.0125
0.0125
0.0125
0.0125
0.0125
0.0125
0.0125
0.0125
0.0125
0.0125
0.0125
0.0125
0.0125
0.0125
0.0125
0.0125
0.0125
0.0125
0.0125
0.0125
0.0125
0.0125
0.0125
0.0125
0.0125
0.0125
0.0125
0.0125
0.0125
0.0125
0.0125
0.0125
0.0125
0.0125
0.0125
SCALARS pressure double 1
LOOKUP_TABLE default
905.195
2690
507.725
-805.464
-1136.66
960.267
-1311.42
3653.77
-1980.38
849.812
-1731.13
-769.607
-950.704
-233.559
1481.1
-1775.29
1304.93
2035.33
234.321
404.701
2483.85
-2998.93
-2683.99
1807.89
3341.34
-1270.9
1472.13
-103.307
-2307.35
1062
-636.455
1538.91
-301.959
1032.07
1782.88
-2331.45
5165.21
-4502.27
-1316.31
5965.02
-1888.32
-1059.5
2187.5
1268.87
2059.47
-2582.97
808.519
-715.537
-1213.32
3712.97
-848.642
-8887.22
3507.41
-7072.66
9895.46
-3644.05
3556.78
-2542.55
-756.912
1566.45
-2799.28
704.408
219.598
-213.142
SCALARS density double 1
LOOKUP_TABLE default
1009.46
1028.37
1005.29
991.658
988.248
1010.04
986.454
1038.73
979.615
1008.88
982.157
992.028
990.161
997.574
1015.52
981.706
1013.66
1021.39
1002.44
1004.22
1026.17
969.292
972.472
1018.98
1035.36
986.87
1015.43
998.926
976.289
1011.11
993.403
1016.13
996.865
1010.79
1018.71
976.045
1055.19
954.256
986.404
1064
980.553
989.042
1023.01
1013.28
1021.65
973.495
1008.44
992.586
987.461
1039.37
991.213
911.716
1037.15
929.084
1108.39
962.811
1037.68
973.904
992.159
1016.42
971.307
1007.35
1002.29
997.786
