# vtk DataFile Version 3.0
Frame: 49, Time: 0.8
ASCII
DATASET UNSTRUCTURED_GRID
POINTS 441 double
0 0 0 
0.05 0 0 
0.1 0 0 
0.15 0 0 
0.2 0 0 
0.25 0 0 
0.3 0 0 
0.35 0 0 
0.4 0 0 
0.45 0 0 
0.5 0 0 
0.55 0 0 
0.6 0 0 
0.65 0 0 
0.7 0 0 
0.75 0 0 
0.8 0 0 
0.85 0 0 
0.9 0 0 
0.95 0 0 
1 0 0 
0 0.05 0 
0.05 0.05 0 
0.1 0.05 0 
0.15 0.05 0 
0.2 0.05 0 
0.25 0.05 0 
0.3 0.05 0 
0.35 0.05 0 
0.4 0.05 0 
0.45 0.05 0 
0.5 0.05 0 
0.55 0.05 0 
0.6 0.05 0 
0.65 0.05 0 
0.7 0.05 0 
0.75 0.05 0 
0.8 0.05 0 
0.85 0.05 0 
0.9 0.05 0 
0.95 0.05 0 
1 0.05 0 
0 0.1 0 
0.05 0.1 0 
0.1 0.1 0 
0.15 0.1 0 
0.2 0.1 0 
0.25 0.1 0 
0.3 0.1 0 
0.35 0.1 0 
0.4 0.1 0 
0.45 0.1 0 
0.5 0.1 0 
0.55 0.1 0 
0.6 0.1 0 
0.65 0.1 0 
0.7 0.1 0 
0.75 0.1 0 
0.8 0.1 0 
0.85 0.1 0 
0.9 0.1 0 
0.95 0.1 0 
1 0.1 0 
0 0.15 0 
0.05 0.15 0 
0.1 0.15 0 
0.15 0.15 0 
0.2 0.15 0 
0.25 0.15 0 
0.3 0.15 0 
0.35 0.15 0 
0.4 0.15 0 
0.45 0.15 0 
0.5 0.15 0 
0.55 0.15 0 
0.6 0.15 0 
0.65 0.15 0 
0.7 0.15 0 
0.75 0.15 0 
0.8 0.15 0 
0.85 0.15 0 
0.9 0.15 0 
0.95 0.15 0 
1 0.15 0 
0 0.2 0 
0.05 0.2 0 
0.1 0.2 0 
0.15 0.2 0 
0.2 0.2 0 
0.25 0.2 0 
0.3 0.2 0 
0.35 0.2 0 
0.4 0.2 0 
0.45 0.2 0 
0.5 0.2 0 
0.55 0.2 0 
0.6 0.2 0 
0.65 0.2 0 
0.7 0.2 0 
0.75 0.2 0 
0.8 0.2 0 
0.85 0.2 0 
0.9 0.2 0 
0.95 0.2 0 
1 0.2 0 
0 0.25 0 
0.05 0.25 0 
0.1 0.25 0 
0.15 0.25 0 
0.2 0.25 0 
0.25 0.25 0 
0.3 0.25 0 
0.35 0.25 0 
0.4 0.25 0 
0.45 0.25 0 
0.5 0.25 0 
0.55 0.25 0 
0.6 0.25 0 
0.65 0.25 0 
0.7 0.25 0 
0.75 0.25 0 
0.8 0.25 0 
0.85 0.25 0 
0.9 0.25 0 
0.95 0.25 0 
1 0.25 0 
0 0.3 0 
0.05 0.3 0 
0.1 0.3 0 
0.15 0.3 0 
0.2 0.3 0 
0.25 0.3 0 
0.3 0.3 0 
0.35 0.3 0 
0.4 0.3 0 
0.45 0.3 0 
0.5 0.3 0 
0.55 0.3 0 
0.6 0.3 0 
0.65 0.3 0 
0.7 0.3 0 
0.75 0.3 0 
0.8 0.3 0 
0.85 0.3 0 
0.9 0.3 0 
0.95 0.3 0 
1 0.3 0 
0 0.35 0 
0.05 0.35 0 
0.1 0.35 0 
0.15 0.35 0 
0.2 0.35 0 
0.25 0.35 0 
0.3 0.35 0 
0.35 0.35 0 
0.4 0.35 0 
0.45 0.35 0 
0.5 0.35 0 
0.55 0.35 0 
0.6 0.35 0 
0.65 0.35 0 
0.7 0.35 0 
0.75 0.35 0 
0.8 0.35 0 
0.85 0.35 0 
0.9 0.35 0 
0.95 0.35 0 
1 0.35 0 
0 0.4 0 
0.05 0.4 0 
0.1 0.4 0 
0.15 0.4 0 
0.2 0.4 0 
0.25 0.4 0 
0.3 0.4 0 
0.35 0.4 0 
0.4 0.4 0 
0.45 0.4 0 
0.5 0.4 0 
0.55 0.4 0 
0.6 0.4 0 
0.65 0.4 0 
0.7 0.4 0 
0.75 0.4 0 
0.8 0.4 0 
0.85 0.4 0 
0.9 0.4 0 
0.95 0.4 0 
1 0.4 0 
0 0.45 0 
0.05 0.45 0 
0.1 0.45 0 
0.15 0.45 0 
0.2 0.45 0 
0.25 0.45 0 
0.3 0.45 0 
0.35 0.45 0 
0.4 0.45 0 
0.45 0.45 0 
0.5 0.45 0 
0.55 0.45 0 
0.6 0.45 0 
0.65 0.45 0 
0.7 0.45 0 
0.75 0.45 0 
0.8 0.45 0 
0.85 0.45 0 
0.9 0.45 0 
0.95 0.45 0 
1 0.45 0 
0 0.5 0 
0.05 0.5 0 
0.1 0.5 0 
0.15 0.5 0 
0.2 0.5 0 
0.25 0.5 0 
0.3 0.5 0 
0.35 0.5 0 
0.4 0.5 0 
0.45 0.5 0 
0.5 0.5 0 
0.55 0.5 0 
0.6 0.5 0 
0.65 0.5 0 
0.7 0.5 0 
0.75 0.5 0 
0.8 0.5 0 
0.85 0.5 0 
0.9 0.5 0 
0.95 0.5 0 
1 0.5 0 
0 0.55 0 
0.05 0.55 0 
0.1 0.55 0 
0.15 0.55 0 
0.2 0.55 0 
0.25 0.55 0 
0.3 0.55 0 
0.35 0.55 0 
0.4 0.55 0 
0.45 0.55 0 
0.5 0.55 0 
0.55 0.55 0 
0.6 0.55 0 
0.65 0.55 0 
0.7 0.55 0 
0.75 0.55 0 
0.8 0.55 0 
0.85 0.55 0 
0.9 0.55 0 
0.95 0.55 0 
1 0.55 0 
0 0.6 0 
0.05 0.6 0 
0.1 0.6 0 
0.15 0.6 0 
0.2 0.6 0 
0.25 0.6 0 
0.3 0.6 0 
0.35 0.6 0 
0.4 0.6 0 
0.45 0.6 0 
0.5 0.6 0 
0.55 0.6 0 
0.6 0.6 0 
0.65 0.6 0 
0.7 0.6 0 
0.75 0.6 0 
0.8 0.6 0 
0.85 0.6 0 
0.9 0.6 0 
0.95 0.6 0 
1 0.6 0 
0 0.65 0 
0.05 0.65 0 
0.1 0.65 0 
0.15 0.65 0 
0.2 0.65 0 
0.25 0.65 0 
0.3 0.65 0 
0.35 0.65 0 
0.4 0.65 0 
0.45 0.65 0 
0.5 0.65 0 
0.55 0.65 0 
0.6 0.65 0 
0.65 0.65 0 
0.7 0.65 0 
0.75 0.65 0 
0.8 0.65 0 
0.85 0.65 0 
0.9 0.65 0 
0.95 0.65 0 
1 0.65 0 
0 0.7 0 
0.05 0.7 0 
0.1 0.7 0 
0.15 0.7 0 
0.2 0.7 0 
0.25 0.7 0 
0.3 0.7 0 
0.35 0.7 0 
0.4 0.7 0 
0.45 0.7 0 
0.5 0.7 0 
0.55 0.7 0 
0.6 0.7 0 
0.65 0.7 0 
0.7 0.7 0 
0.75 0.7 0 
0.8 0.7 0 
0.85 0.7 0 
0.9 0.7 0 
0.95 0.7 0 
1 0.7 0 
0 0.75 0 
0.05 0.75 0 
0.1 0.75 0 
0.15 0.75 0 
0.2 0.75 0 
0.25 0.75 0 
0.3 0.75 0 
0.35 0.75 0 
0.4 0.75 0 
0.45 0.75 0 
0.5 0.75 0 
0.55 0.75 0 
0.6 0.75 0 
0.65 0.75 0 
0.7 0.75 0 
0.75 0.75 0 
0.8 0.75 0 
0.85 0.75 0 
0.9 0.75 0 
0.95 0.75 0 
1 0.75 0 
0 0.8 0 
0.05 0.8 0 
0.1 0.8 0 
0.15 0.8 0 
0.2 0.8 0 
0.25 0.8 0 
0.3 0.8 0 
0.35 0.8 0 
0.4 0.8 0 
0.45 0.8 0 
0.5 0.8 0 
0.55 0.8 0 
0.6 0.8 0 
0.65 0.8 0 
0.7 0.8 0 
0.75 0.8 0 
0.8 0.8 0 
0.85 0.8 0 
0.9 0.8 0 
0.95 0.8 0 
1 0.8 0 
0 0.85 0 
0.05 0.85 0 
0.1 0.85 0 
0.15 0.85 0 
0.2 0.85 0 
0.25 0.85 0 
0.3 0.85 0 
0.35 0.85 0 
0.4 0.85 0 
0.45 0.85 0 
0.5 0.85 0 
0.55 0.85 0 
0.6 0.85 0 
0.65 0.85 0 
0.7 0.85 0 
0.75 0.85 0 
0.8 0.85 0 
0.85 0.85 0 
0.9 0.85 0 
0.95 0.85 0 
1 0.85 0 
0 0.9 0 
0.05 0.9 0 
0.1 0.9 0 
0.15 0.9 0 
0.2 0.9 0 
0.25 0.9 0 
0.3 0.9 0 
0.35 0.9 0 
0.4 0.9 0 
0.45 0.9 0 
0.5 0.9 0 
0.55 0.9 0 
0.6 0.9 0 
0.65 0.9 0 
0.7 0.9 0 
0.75 0.9 0 
0.8 0.9 0 
0.85 0.9 0 
0.9 0.9 0 
0.95 0.9 0 
1 0.9 0 
0 0.95 0 
0.05 0.95 0 
0.1 0.95 0 
0.15 0.95 0 
0.2 0.95 0 
0.25 0.95 0 
0.3 0.95 0 
0.35 0.95 0 
0.4 0.95 0 
0.45 0.95 0 
0.5 0.95 0 
0.55 0.95 0 
0.6 0.95 0 
0.65 0.95 0 
0.7 0.95 0 
0.75 0.95 0 
0.8 0.95 0 
0.85 0.95 0 
0.9 0.95 0 
0.95 0.95 0 
1 0.95 0 
0 1 0 
0.05 1 0 
0.1 1 0 
0.15 1 0 
0.2 1 0 
0.25 1 0 
0.3 1 0 
0.35 1 0 
0.4 1 0 
0.45 1 0 
0.5 1 0 
0.55 1 0 
0.6 1 0 
0.65 1 0 
0.7 1 0 
0.75 1 0 
0.8 1 0 
0.85 1 0 
0.9 1 0 
0.95 1 0 
1 1 0 
CELLS 400 2000
4 0 1 21 22
4 1 2 22 23
4 2 3 23 24
4 3 4 24 25
4 4 5 25 26
4 5 6 26 27
4 6 7 27 28
4 7 8 28 29
4 8 9 29 30
4 9 10 30 31
4 10 11 31 32
4 11 12 32 33
4 12 13 33 34
4 13 14 34 35
4 14 15 35 36
4 15 16 36 37
4 16 17 37 38
4 17 18 38 39
4 18 19 39 40
4 19 20 40 41
4 21 22 42 43
4 22 23 43 44
4 23 24 44 45
4 24 25 45 46
4 25 26 46 47
4 26 27 47 48
4 27 28 48 49
4 28 29 49 50
4 29 30 50 51
4 30 31 51 52
4 31 32 52 53
4 32 33 53 54
4 33 34 54 55
4 34 35 55 56
4 35 36 56 57
4 36 37 57 58
4 37 38 58 59
4 38 39 59 60
4 39 40 60 61
4 40 41 61 62
4 42 43 63 64
4 43 44 64 65
4 44 45 65 66
4 45 46 66 67
4 46 47 67 68
4 47 48 68 69
4 48 49 69 70
4 49 50 70 71
4 50 51 71 72
4 51 52 72 73
4 52 53 73 74
4 53 54 74 75
4 54 55 75 76
4 55 56 76 77
4 56 57 77 78
4 57 58 78 79
4 58 59 79 80
4 59 60 80 81
4 60 61 81 82
4 61 62 82 83
4 63 64 84 85
4 64 65 85 86
4 65 66 86 87
4 66 67 87 88
4 67 68 88 89
4 68 69 89 90
4 69 70 90 91
4 70 71 91 92
4 71 72 92 93
4 72 73 93 94
4 73 74 94 95
4 74 75 95 96
4 75 76 96 97
4 76 77 97 98
4 77 78 98 99
4 78 79 99 100
4 79 80 100 101
4 80 81 101 102
4 81 82 102 103
4 82 83 103 104
4 84 85 105 106
4 85 86 106 107
4 86 87 107 108
4 87 88 108 109
4 88 89 109 110
4 89 90 110 111
4 90 91 111 112
4 91 92 112 113
4 92 93 113 114
4 93 94 114 115
4 94 95 115 116
4 95 96 116 117
4 96 97 117 118
4 97 98 118 119
4 98 99 119 120
4 99 100 120 121
4 100 101 121 122
4 101 102 122 123
4 102 103 123 124
4 103 104 124 125
4 105 106 126 127
4 106 107 127 128
4 107 108 128 129
4 108 109 129 130
4 109 110 130 131
4 110 111 131 132
4 111 112 132 133
4 112 113 133 134
4 113 114 134 135
4 114 115 135 136
4 115 116 136 137
4 116 117 137 138
4 117 118 138 139
4 118 119 139 140
4 119 120 140 141
4 120 121 141 142
4 121 122 142 143
4 122 123 143 144
4 123 124 144 145
4 124 125 145 146
4 126 127 147 148
4 127 128 148 149
4 128 129 149 150
4 129 130 150 151
4 130 131 151 152
4 131 132 152 153
4 132 133 153 154
4 133 134 154 155
4 134 135 155 156
4 135 136 156 157
4 136 137 157 158
4 137 138 158 159
4 138 139 159 160
4 139 140 160 161
4 140 141 161 162
4 141 142 162 163
4 142 143 163 164
4 143 144 164 165
4 144 145 165 166
4 145 146 166 167
4 147 148 168 169
4 148 149 169 170
4 149 150 170 171
4 150 151 171 172
4 151 152 172 173
4 152 153 173 174
4 153 154 174 175
4 154 155 175 176
4 155 156 176 177
4 156 157 177 178
4 157 158 178 179
4 158 159 179 180
4 159 160 180 181
4 160 161 181 182
4 161 162 182 183
4 162 163 183 184
4 163 164 184 185
4 164 165 185 186
4 165 166 186 187
4 166 167 187 188
4 168 169 189 190
4 169 170 190 191
4 170 171 191 192
4 171 172 192 193
4 172 173 193 194
4 173 174 194 195
4 174 175 195 196
4 175 176 196 197
4 176 177 197 198
4 177 178 198 199
4 178 179 199 200
4 179 180 200 201
4 180 181 201 202
4 181 182 202 203
4 182 183 203 204
4 183 184 204 205
4 184 185 205 206
4 185 186 206 207
4 186 187 207 208
4 187 188 208 209
4 189 190 210 211
4 190 191 211 212
4 191 192 212 213
4 192 193 213 214
4 193 194 214 215
4 194 195 215 216
4 195 196 216 217
4 196 197 217 218
4 197 198 218 219
4 198 199 219 220
4 199 200 220 221
4 200 201 221 222
4 201 202 222 223
4 202 203 223 224
4 203 204 224 225
4 204 205 225 226
4 205 206 226 227
4 206 207 227 228
4 207 208 228 229
4 208 209 229 230
4 210 211 231 232
4 211 212 232 233
4 212 213 233 234
4 213 214 234 235
4 214 215 235 236
4 215 216 236 237
4 216 217 237 238
4 217 218 238 239
4 218 219 239 240
4 219 220 240 241
4 220 221 241 242
4 221 222 242 243
4 222 223 243 244
4 223 224 244 245
4 224 225 245 246
4 225 226 246 247
4 226 227 247 248
4 227 228 248 249
4 228 229 249 250
4 229 230 250 251
4 231 232 252 253
4 232 233 253 254
4 233 234 254 255
4 234 235 255 256
4 235 236 256 257
4 236 237 257 258
4 237 238 258 259
4 238 239 259 260
4 239 240 260 261
4 240 241 261 262
4 241 242 262 263
4 242 243 263 264
4 243 244 264 265
4 244 245 265 266
4 245 246 266 267
4 246 247 267 268
4 247 248 268 269
4 248 249 269 270
4 249 250 270 271
4 250 251 271 272
4 252 253 273 274
4 253 254 274 275
4 254 255 275 276
4 255 256 276 277
4 256 257 277 278
4 257 258 278 279
4 258 259 279 280
4 259 260 280 281
4 260 261 281 282
4 261 262 282 283
4 262 263 283 284
4 263 264 284 285
4 264 265 285 286
4 265 266 286 287
4 266 267 287 288
4 267 268 288 289
4 268 269 289 290
4 269 270 290 291
4 270 271 291 292
4 271 272 292 293
4 273 274 294 295
4 274 275 295 296
4 275 276 296 297
4 276 277 297 298
4 277 278 298 299
4 278 279 299 300
4 279 280 300 301
4 280 281 301 302
4 281 282 302 303
4 282 283 303 304
4 283 284 304 305
4 284 285 305 306
4 285 286 306 307
4 286 287 307 308
4 287 288 308 309
4 288 289 309 310
4 289 290 310 311
4 290 291 311 312
4 291 292 312 313
4 292 293 313 314
4 294 295 315 316
4 295 296 316 317
4 296 297 317 318
4 297 298 318 319
4 298 299 319 320
4 299 300 320 321
4 300 301 321 322
4 301 302 322 323
4 302 303 323 324
4 303 304 324 325
4 304 305 325 326
4 305 306 326 327
4 306 307 327 328
4 307 308 328 329
4 308 309 329 330
4 309 310 330 331
4 310 311 331 332
4 311 312 332 333
4 312 313 333 334
4 313 314 334 335
4 315 316 336 337
4 316 317 337 338
4 317 318 338 339
4 318 319 339 340
4 319 320 340 341
4 320 321 341 342
4 321 322 342 343
4 322 323 343 344
4 323 324 344 345
4 324 325 345 346
4 325 326 346 347
4 326 327 347 348
4 327 328 348 349
4 328 329 349 350
4 329 330 350 351
4 330 331 351 352
4 331 332 352 353
4 332 333 353 354
4 333 334 354 355
4 334 335 355 356
4 336 337 357 358
4 337 338 358 359
4 338 339 359 360
4 339 340 360 361
4 340 341 361 362
4 341 342 362 363
4 342 343 363 364
4 343 344 364 365
4 344 345 365 366
4 345 346 366 367
4 346 347 367 368
4 347 348 368 369
4 348 349 369 370
4 349 350 370 371
4 350 351 371 372
4 351 352 372 373
4 352 353 373 374
4 353 354 374 375
4 354 355 375 376
4 355 356 376 377
4 357 358 378 379
4 358 359 379 380
4 359 360 380 381
4 360 361 381 382
4 361 362 382 383
4 362 363 383 384
4 363 364 384 385
4 364 365 385 386
4 365 366 386 387
4 366 367 387 388
4 367 368 388 389
4 368 369 389 390
4 369 370 390 391
4 370 371 391 392
4 371 372 392 393
4 372 373 393 394
4 373 374 394 395
4 374 375 395 396
4 375 376 396 397
4 376 377 397 398
4 378 379 399 400
4 379 380 400 401
4 380 381 401 402
4 381 382 402 403
4 382 383 403 404
4 383 384 404 405
4 384 385 405 406
4 385 386 406 407
4 386 387 407 408
4 387 388 408 409
4 388 389 409 410
4 389 390 410 411
4 390 391 411 412
4 391 392 412 413
4 392 393 413 414
4 393 394 414 415
4 394 395 415 416
4 395 396 416 417
4 396 397 417 418
4 397 398 418 419
4 399 400 420 421
4 400 401 421 422
4 401 402 422 423
4 402 403 423 424
4 403 404 424 425
4 404 405 425 426
4 405 406 426 427
4 406 407 427 428
4 407 408 428 429
4 408 409 429 430
4 409 410 430 431
4 410 411 431 432
4 411 412 432 433
4 412 413 433 434
4 413 414 434 435
4 414 415 435 436
4 415 416 436 437
4 416 417 437 438
4 417 418 438 439
4 418 419 439 440
CELL_TYPES 400
8
8
8
8
8
8
8
8
8
8
8
8
8
8
8
8
8
8
8
8
8
8
8
8
8
8
8
8
8
8
8
8
8
8
8
8
8
8
8
8
8
8
8
8
8
8
8
8
8
8
8
8
8
8
8
8
8
8
8
8
8
8
8
8
8
8
8
8
8
8
8
8
8
8
8
8
8
8
8
8
8
8
8
8
8
8
8
8
8
8
8
8
8
8
8
8
8
8
8
8
8
8
8
8
8
8
8
8
8
8
8
8
8
8
8
8
8
8
8
8
8
8
8
8
8
8
8
8
8
8
8
8
8
8
8
8
8
8
8
8
8
8
8
8
8
8
8
8
8
8
8
8
8
8
8
8
8
8
8
8
8
8
8
8
8
8
8
8
8
8
8
8
8
8
8
8
8
8
8
8
8
8
8
8
8
8
8
8
8
8
8
8
8
8
8
8
8
8
8
8
8
8
8
8
8
8
8
8
8
8
8
8
8
8
8
8
8
8
8
8
8
8
8
8
8
8
8
8
8
8
8
8
8
8
8
8
8
8
8
8
8
8
8
8
8
8
8
8
8
8
8
8
8
8
8
8
8
8
8
8
8
8
8
8
8
8
8
8
8
8
8
8
8
8
8
8
8
8
8
8
8
8
8
8
8
8
8
8
8
8
8
8
8
8
8
8
8
8
8
8
8
8
8
8
8
8
8
8
8
8
8
8
8
8
8
8
8
8
8
8
8
8
8
8
8
8
8
8
8
8
8
8
8
8
8
8
8
8
8
8
8
8
8
8
8
8
8
8
8
8
8
8
8
8
8
8
8
8
8
8
8
8
8
8
8
8
8
8
8
8
8
8
8
8
8
8
8
8
8
8
8
8
8
8
8
8
8
8
8
8
8
8
8
8
8
8
8
8
8
8
POINT_DATA 441
VECTORS displacement double
0 0 0 
0 0 0 
0 0 0 
0 0 0 
0 0 0 
0 0 0 
0 0 0 
0 0 0 
0 0 0 
0 0 0 
0 0 0 
0 0 0 
0 0 0 
0 0 0 
0 0 0 
0 0 0 
0 0 0 
0 0 0 
0 0 0 
0 0 0 
0 0 0 
0 0 0 
0 0 0 
0 0 0 
0 0 0 
0 0 0 
0 0 0 
0 0 0 
0 0 0 
0 0 0 
0 0 0 
0 0 0 
0 0 0 
0 0 0 
0 0 0 
0 0 0 
0 0 0 
0 0 0 
0 0 0 
0 0 0 
0 0 0 
0 0 0 
0 0 0 
0 0 0 
0 0 0 
0 0 0 
0 0 0 
0 0 0 
0 0 0 
0 0 0 
0 0 0 
0 0 0 
-0.000800338 -0.00160057 0 
-0.00070769 -0.00181576 0 
0 0 0 
0 0 0 
0 0 0 
0 0 0 
0 0 0 
0 0 0 
0 0 0 
0 0 0 
0 0 0 
0 0 0 
0 0 0 
0 0 0 
0 0 0 
0 0 0 
0 0 0 
0 0 0 
0 0 0 
0 0 0 
-0.000999881 -0.00158493 0 
-0.000922374 -0.00165078 0 
-0.000935155 -0.00162353 0 
-0.000885027 -0.00121197 0 
0 0 0 
0 0 0 
0 0 0 
0 0 0 
0 0 0 
0 0 0 
0 0 0 
0 0 0 
0 0 0 
0 0 0 
0 0 0 
0 0 0 
0 0 0 
0 0 0 
0 0 0 
0 0 0 
-0.000920336 -0.00174309 0 
-0.00101489 -0.00171515 0 
-0.00102645 -0.00167411 0 
-0.000985408 -0.00145488 0 
-0.000930453 -0.00134979 0 
-0.000962905 -0.00125935 0 
0 0 0 
0 0 0 
0 0 0 
0 0 0 
0 0 0 
0 0 0 
0 0 0 
0 0 0 
0 0 0 
0 0 0 
0 0 0 
0 0 0 
0 0 0 
0 0 0 
-0.000378086 -0.00171553 0 
-0.00117069 -0.00195356 0 
-0.00111574 -0.00171902 0 
-0.00115049 -0.00152324 0 
-0.00118128 -0.00149888 0 
-0.00116646 -0.00134973 0 
-0.00113158 -0.00126032 0 
-0.00126972 -0.00112873 0 
0 0 0 
0 0 0 
0 0 0 
0 0 0 
0 0 0 
0 0 0 
0 0 0 
0 0 0 
0 0 0 
0 0 0 
0 0 0 
0 0 0 
0 0 0 
-0.000258094 -0.000837689 0 
-0.00132526 -0.00192501 0 
-0.00137091 -0.00179525 0 
-0.00136232 -0.00165004 0 
-0.00133567 -0.00151321 0 
-0.00132572 -0.00142675 0 
-0.00134706 -0.00124789 0 
-0.00123444 -0.00123305 0 
0 0 0 
0 0 0 
0 0 0 
0 0 0 
0 0 0 
0 0 0 
0 0 0 
0 0 0 
0 0 0 
0 0 0 
0 0 0 
0 0 0 
0 0 0 
0 0 0 
-0.00124261 -0.00141935 0 
-0.00157976 -0.0018181 0 
-0.00158651 -0.0016507 0 
-0.00155306 -0.00152962 0 
-0.00144475 -0.00141252 0 
-0.00144353 -0.00134861 0 
0 0 0 
0 0 0 
0 0 0 
0 0 0 
0 0 0 
0 0 0 
0 0 0 
0 0 0 
0 0 0 
0 0 0 
0 0 0 
0 0 0 
0 0 0 
0 0 0 
0 0 0 
0 0 0 
-0.00174522 -0.00143145 0 
-0.00191944 -0.00179558 0 
-0.00190113 -0.00161783 0 
-0.00152376 -0.00148739 0 
0 0 0 
0 0 0 
0 0 0 
0 0 0 
0 0 0 
0 0 0 
0 0 0 
0 0 0 
0 0 0 
0 0 0 
0 0 0 
0 0 0 
0 0 0 
0 0 0 
0 0 0 
0 0 0 
0 0 0 
0 0 0 
0 0 0 
0 0 0 
0 0 0 
0 0 0 
0 0 0 
0 0 0 
0 0 0 
0 0 0 
0 0 0 
0 0 0 
0 0 0 
0 0 0 
0 0 0 
0 0 0 
0 0 0 
0 0 0 
0 0 0 
0 0 0 
0 0 0 
0 0 0 
0 0 0 
0 0 0 
0 0 0 
0 0 0 
0 0 0 
0 0 0 
0 0 0 
0 0 0 
0 0 0 
0 0 0 
0 0 0 
0 0 0 
0 0 0 
0 0 0 
0 0 0 
0 0 0 
0 0 0 
0 0 0 
0 0 0 
0 0 0 
0 0 0 
0 0 0 
0 0 0 
0 0 0 
0 0 0 
0 0 0 
0 0 0 
0 0 0 
0 0 0 
0 0 0 
0 0 0 
0 0 0 
0 0 0 
0 0 0 
0 0 0 
0 0 0 
0 0 0 
0 0 0 
0 0 0 
0 0 0 
0 0 0 
0 0 0 
0 0 0 
0 0 0 
0 0 0 
0 0 0 
0 0 0 
0 0 0 
0 0 0 
0 0 0 
0 0 0 
0 0 0 
0 0 0 
0 0 0 
0 0 0 
0 0 0 
0 0 0 
0 0 0 
0 0 0 
0 0 0 
0 0 0 
0 0 0 
0 0 0 
0 0 0 
0 0 0 
0 0 0 
0 0 0 
0 0 0 
0 0 0 
0 0 0 
0 0 0 
0 0 0 
0 0 0 
0 0 0 
0 0 0 
0 0 0 
0 0 0 
0 0 0 
0 0 0 
0 0 0 
0 0 0 
0 0 0 
0 0 0 
0 0 0 
0 0 0 
0 0 0 
0 0 0 
0 0 0 
0 0 0 
0 0 0 
0 0 0 
0 0 0 
0 0 0 
0 0 0 
0 0 0 
0 0 0 
0 0 0 
0 0 0 
0 0 0 
0 0 0 
0 0 0 
0 0 0 
0 0 0 
0 0 0 
0 0 0 
0 0 0 
0 0 0 
0 0 0 
0 0 0 
0 0 0 
0 0 0 
0 0 0 
0 0 0 
0 0 0 
0 0 0 
0 0 0 
0 0 0 
0 0 0 
0 0 0 
0 0 0 
0 0 0 
0 0 0 
0 0 0 
0 0 0 
0 0 0 
0 0 0 
0 0 0 
0 0 0 
0 0 0 
0 0 0 
0 0 0 
0 0 0 
0 0 0 
0 0 0 
0 0 0 
0 0 0 
0 0 0 
0 0 0 
0 0 0 
0 0 0 
0 0 0 
0 0 0 
0 0 0 
0 0 0 
0 0 0 
0 0 0 
0 0 0 
0 0 0 
0 0 0 
0 0 0 
0 0 0 
0 0 0 
0 0 0 
0 0 0 
0 0 0 
0 0 0 
0 0 0 
0 0 0 
0 0 0 
0 0 0 
0 0 0 
0 0 0 
0 0 0 
0 0 0 
0 0 0 
0 0 0 
0 0 0 
0 0 0 
0 0 0 
0 0 0 
0 0 0 
0 0 0 
0 0 0 
0 0 0 
0 0 0 
0 0 0 
0 0 0 
0 0 0 
0 0 0 
0 0 0 
0 0 0 
0 0 0 
0 0 0 
0 0 0 
0 0 0 
0 0 0 
0 0 0 
0 0 0 
0 0 0 
0 0 0 
0 0 0 
0 0 0 
0 0 0 
0 0 0 
0 0 0 
0 0 0 
0 0 0 
0 0 0 
0 0 0 
0 0 0 
0 0 0 
0 0 0 
0 0 0 
0 0 0 
0 0 0 
0 0 0 
0 0 0 
0 0 0 
0 0 0 
0 0 0 
0 0 0 
0 0 0 
0 0 0 
0 0 0 
0 0 0 
0 0 0 
0 0 0 
0 0 0 
0 0 0 
0 0 0 
0 0 0 
0 0 0 
VECTORS velocity double
0 0 0 
0 0 0 
0 0 0 
0 0 0 
0 0 0 
0 0 0 
0 0 0 
0 0 0 
0 0 0 
0 0 0 
0 0 0 
0 0 0 
0 0 0 
0 0 0 
0 0 0 
0 0 0 
0 0 0 
0 0 0 
0 0 0 
0 0 0 
0 0 0 
0 0 0 
0 0 0 
0 0 0 
0 0 0 
0 0 0 
0 0 0 
0 0 0 
0 0 0 
0 0 0 
0 0 0 
0 0 0 
0 0 0 
0 0 0 
0 0 0 
0 0 0 
0 0 0 
0 0 0 
0 0 0 
0 0 0 
0 0 0 
0 0 0 
0 0 0 
0 0 0 
0 0 0 
0 0 0 
0 0 0 
0 0 0 
0 0 0 
0 0 0 
0 0 0 
0 0 0 
-0.800338 -1.60057 0 
-0.70769 -1.81576 0 
0 0 0 
0 0 0 
0 0 0 
0 0 0 
0 0 0 
0 0 0 
0 0 0 
0 0 0 
0 0 0 
0 0 0 
0 0 0 
0 0 0 
0 0 0 
0 0 0 
0 0 0 
0 0 0 
0 0 0 
0 0 0 
-0.999881 -1.58493 0 
-0.922374 -1.65078 0 
-0.935155 -1.62353 0 
-0.885027 -1.21197 0 
0 0 0 
0 0 0 
0 0 0 
0 0 0 
0 0 0 
0 0 0 
0 0 0 
0 0 0 
0 0 0 
0 0 0 
0 0 0 
0 0 0 
0 0 0 
0 0 0 
0 0 0 
0 0 0 
-0.920336 -1.74309 0 
-1.01489 -1.71515 0 
-1.02645 -1.67411 0 
-0.985408 -1.45488 0 
-0.930453 -1.34979 0 
-0.962905 -1.25935 0 
0 0 0 
0 0 0 
0 0 0 
0 0 0 
0 0 0 
0 0 0 
0 0 0 
0 0 0 
0 0 0 
0 0 0 
0 0 0 
0 0 0 
0 0 0 
0 0 0 
-0.378086 -1.71553 0 
-1.17069 -1.95356 0 
-1.11574 -1.71902 0 
-1.15049 -1.52324 0 
-1.18128 -1.49888 0 
-1.16646 -1.34973 0 
-1.13158 -1.26032 0 
-1.26972 -1.12873 0 
0 0 0 
0 0 0 
0 0 0 
0 0 0 
0 0 0 
0 0 0 
0 0 0 
0 0 0 
0 0 0 
0 0 0 
0 0 0 
0 0 0 
0 0 0 
-0.258094 -0.837689 0 
-1.32526 -1.92501 0 
-1.37091 -1.79525 0 
-1.36232 -1.65004 0 
-1.33567 -1.51321 0 
-1.32572 -1.42675 0 
-1.34706 -1.24789 0 
-1.23444 -1.23305 0 
0 0 0 
0 0 0 
0 0 0 
0 0 0 
0 0 0 
0 0 0 
0 0 0 
0 0 0 
0 0 0 
0 0 0 
0 0 0 
0 0 0 
0 0 0 
0 0 0 
-1.24261 -1.41935 0 
-1.57976 -1.8181 0 
-1.58651 -1.6507 0 
-1.55306 -1.52962 0 
-1.44475 -1.41252 0 
-1.44353 -1.34861 0 
0 0 0 
0 0 0 
0 0 0 
0 0 0 
0 0 0 
0 0 0 
0 0 0 
0 0 0 
0 0 0 
0 0 0 
0 0 0 
0 0 0 
0 0 0 
0 0 0 
0 0 0 
0 0 0 
-1.74522 -1.43145 0 
-1.91944 -1.79558 0 
-1.90113 -1.61783 0 
-1.52376 -1.48739 0 
0 0 0 
0 0 0 
0 0 0 
0 0 0 
0 0 0 
0 0 0 
0 0 0 
0 0 0 
0 0 0 
0 0 0 
0 0 0 
0 0 0 
0 0 0 
0 0 0 
0 0 0 
0 0 0 
0 0 0 
0 0 0 
0 0 0 
0 0 0 
0 0 0 
0 0 0 
0 0 0 
0 0 0 
0 0 0 
0 0 0 
0 0 0 
0 0 0 
0 0 0 
0 0 0 
0 0 0 
0 0 0 
0 0 0 
0 0 0 
0 0 0 
0 0 0 
0 0 0 
0 0 0 
0 0 0 
0 0 0 
0 0 0 
0 0 0 
0 0 0 
0 0 0 
0 0 0 
0 0 0 
0 0 0 
0 0 0 
0 0 0 
0 0 0 
0 0 0 
0 0 0 
0 0 0 
0 0 0 
0 0 0 
0 0 0 
0 0 0 
0 0 0 
0 0 0 
0 0 0 
0 0 0 
0 0 0 
0 0 0 
0 0 0 
0 0 0 
0 0 0 
0 0 0 
0 0 0 
0 0 0 
0 0 0 
0 0 0 
0 0 0 
0 0 0 
0 0 0 
0 0 0 
0 0 0 
0 0 0 
0 0 0 
0 0 0 
0 0 0 
0 0 0 
0 0 0 
0 0 0 
0 0 0 
0 0 0 
0 0 0 
0 0 0 
0 0 0 
0 0 0 
0 0 0 
0 0 0 
0 0 0 
0 0 0 
0 0 0 
0 0 0 
0 0 0 
0 0 0 
0 0 0 
0 0 0 
0 0 0 
0 0 0 
0 0 0 
0 0 0 
0 0 0 
0 0 0 
0 0 0 
0 0 0 
0 0 0 
0 0 0 
0 0 0 
0 0 0 
0 0 0 
0 0 0 
0 0 0 
0 0 0 
0 0 0 
0 0 0 
0 0 0 
0 0 0 
0 0 0 
0 0 0 
0 0 0 
0 0 0 
0 0 0 
0 0 0 
0 0 0 
0 0 0 
0 0 0 
0 0 0 
0 0 0 
0 0 0 
0 0 0 
0 0 0 
0 0 0 
0 0 0 
0 0 0 
0 0 0 
0 0 0 
0 0 0 
0 0 0 
0 0 0 
0 0 0 
0 0 0 
0 0 0 
0 0 0 
0 0 0 
0 0 0 
0 0 0 
0 0 0 
0 0 0 
0 0 0 
0 0 0 
0 0 0 
0 0 0 
0 0 0 
0 0 0 
0 0 0 
0 0 0 
0 0 0 
0 0 0 
0 0 0 
0 0 0 
0 0 0 
0 0 0 
0 0 0 
0 0 0 
0 0 0 
0 0 0 
0 0 0 
0 0 0 
0 0 0 
0 0 0 
0 0 0 
0 0 0 
0 0 0 
0 0 0 
0 0 0 
0 0 0 
0 0 0 
0 0 0 
0 0 0 
0 0 0 
0 0 0 
0 0 0 
0 0 0 
0 0 0 
0 0 0 
0 0 0 
0 0 0 
0 0 0 
0 0 0 
0 0 0 
0 0 0 
0 0 0 
0 0 0 
0 0 0 
0 0 0 
0 0 0 
0 0 0 
0 0 0 
0 0 0 
0 0 0 
0 0 0 
0 0 0 
0 0 0 
0 0 0 
0 0 0 
0 0 0 
0 0 0 
0 0 0 
0 0 0 
0 0 0 
0 0 0 
0 0 0 
0 0 0 
0 0 0 
0 0 0 
0 0 0 
0 0 0 
0 0 0 
0 0 0 
0 0 0 
0 0 0 
0 0 0 
0 0 0 
0 0 0 
0 0 0 
0 0 0 
0 0 0 
0 0 0 
0 0 0 
0 0 0 
0 0 0 
0 0 0 
0 0 0 
0 0 0 
0 0 0 
0 0 0 
0 0 0 
0 0 0 
0 0 0 
0 0 0 
0 0 0 
0 0 0 
0 0 0 
0 0 0 
0 0 0 
0 0 0 
0 0 0 
0 0 0 
0 0 0 
0 0 0 
0 0 0 
0 0 0 
0 0 0 
0 0 0 
0 0 0 
0 0 0 
0 0 0 
0 0 0 
VECTORS diff_velocity double
0 0 0 
0 0 0 
0 0 0 
0 0 0 
0 0 0 
0 0 0 
0 0 0 
0 0 0 
0 0 0 
0 0 0 
0 0 0 
0 0 0 
0 0 0 
0 0 0 
0 0 0 
0 0 0 
0 0 0 
0 0 0 
0 0 0 
0 0 0 
0 0 0 
0 0 0 
0 0 0 
0 0 0 
0 0 0 
0 0 0 
0 0 0 
0 0 0 
0 0 0 
0 0 0 
0 0 0 
0 0 0 
0 0 0 
0 0 0 
0 0 0 
0 0 0 
0 0 0 
0 0 0 
0 0 0 
0 0 0 
0 0 0 
0 0 0 
0 0 0 
0 0 0 
0 0 0 
0 0 0 
0 0 0 
0 0 0 
0 0 0 
0 0 0 
0 0 0 
0 0 0 
0.17091 0.262761 0 
0.242884 0.0479061 0 
0 0 0 
0 0 0 
0 0 0 
0 0 0 
0 0 0 
0 0 0 
0 0 0 
0 0 0 
0 0 0 
0 0 0 
0 0 0 
0 0 0 
0 0 0 
0 0 0 
0 0 0 
0 0 0 
0 0 0 
0 0 0 
0.0765689 0.0138497 0 
0.0652504 0.0166096 0 
-0.00036521 -0.0620235 0 
0.178086 0.0223002 0 
0 0 0 
0 0 0 
0 0 0 
0 0 0 
0 0 0 
0 0 0 
0 0 0 
0 0 0 
0 0 0 
0 0 0 
0 0 0 
0 0 0 
0 0 0 
0 0 0 
0 0 0 
0 0 0 
-0.0882827 0.0180008 0 
0.0330793 0.0174111 0 
0.0164722 -0.0135888 0 
0.0210187 0.00938653 0 
0.00987911 -0.0409844 0 
0.0726946 -0.0348697 0 
0 0 0 
0 0 0 
0 0 0 
0 0 0 
0 0 0 
0 0 0 
0 0 0 
0 0 0 
0 0 0 
0 0 0 
0 0 0 
0 0 0 
0 0 0 
0 0 0 
1.0409 0.501422 0 
0.00174453 0.0323293 0 
0.0208975 0.0196608 0 
-0.0183755 0.025916 0 
-0.0339189 -0.00494858 0 
0.0132437 -0.0174237 0 
-0.0181241 -0.0499045 0 
-0.058837 0.0956741 0 
0 0 0 
0 0 0 
0 0 0 
0 0 0 
0 0 0 
0 0 0 
0 0 0 
0 0 0 
0 0 0 
0 0 0 
0 0 0 
0 0 0 
0 0 0 
1.1609 1.37926 0 
-0.0234723 -0.0102593 0 
-0.0260478 0.0163975 0 
-0.00653278 -0.0337451 0 
0.0020368 -0.0364716 0 
0.0157026 -0.0245877 0 
-0.0257271 -0.0463973 0 
-0.0235577 -0.00864397 0 
0 0 0 
0 0 0 
0 0 0 
0 0 0 
0 0 0 
0 0 0 
0 0 0 
0 0 0 
0 0 0 
0 0 0 
0 0 0 
0 0 0 
0 0 0 
0 0 0 
0.354772 0.357048 0 
-0.0323123 0.0428369 0 
-0.00860684 0.00568911 0 
-0.0101272 -0.011943 0 
-0.0307438 -0.0118699 0 
-0.0357814 -0.0669671 0 
0 0 0 
0 0 0 
0 0 0 
0 0 0 
0 0 0 
0 0 0 
0 0 0 
0 0 0 
0 0 0 
0 0 0 
0 0 0 
0 0 0 
0 0 0 
0 0 0 
0 0 0 
0 0 0 
-0.0940724 0.120499 0 
-0.0017585 -0.0057052 0 
-0.0393983 -0.0301119 0 
0.0594744 0.0605654 0 
0 0 0 
0 0 0 
0 0 0 
0 0 0 
0 0 0 
0 0 0 
0 0 0 
0 0 0 
0 0 0 
0 0 0 
0 0 0 
0 0 0 
0 0 0 
0 0 0 
0 0 0 
0 0 0 
0 0 0 
0 0 0 
0 0 0 
0 0 0 
0 0 0 
0 0 0 
0 0 0 
0 0 0 
0 0 0 
0 0 0 
0 0 0 
0 0 0 
0 0 0 
0 0 0 
0 0 0 
0 0 0 
0 0 0 
0 0 0 
0 0 0 
0 0 0 
0 0 0 
0 0 0 
0 0 0 
0 0 0 
0 0 0 
0 0 0 
0 0 0 
0 0 0 
0 0 0 
0 0 0 
0 0 0 
0 0 0 
0 0 0 
0 0 0 
0 0 0 
0 0 0 
0 0 0 
0 0 0 
0 0 0 
0 0 0 
0 0 0 
0 0 0 
0 0 0 
0 0 0 
0 0 0 
0 0 0 
0 0 0 
0 0 0 
0 0 0 
0 0 0 
0 0 0 
0 0 0 
0 0 0 
0 0 0 
0 0 0 
0 0 0 
0 0 0 
0 0 0 
0 0 0 
0 0 0 
0 0 0 
0 0 0 
0 0 0 
0 0 0 
0 0 0 
0 0 0 
0 0 0 
0 0 0 
0 0 0 
0 0 0 
0 0 0 
0 0 0 
0 0 0 
0 0 0 
0 0 0 
0 0 0 
0 0 0 
0 0 0 
0 0 0 
0 0 0 
0 0 0 
0 0 0 
0 0 0 
0 0 0 
0 0 0 
0 0 0 
0 0 0 
0 0 0 
0 0 0 
0 0 0 
0 0 0 
0 0 0 
0 0 0 
0 0 0 
0 0 0 
0 0 0 
0 0 0 
0 0 0 
0 0 0 
0 0 0 
0 0 0 
0 0 0 
0 0 0 
0 0 0 
0 0 0 
0 0 0 
0 0 0 
0 0 0 
0 0 0 
0 0 0 
0 0 0 
0 0 0 
0 0 0 
0 0 0 
0 0 0 
0 0 0 
0 0 0 
0 0 0 
0 0 0 
0 0 0 
0 0 0 
0 0 0 
0 0 0 
0 0 0 
0 0 0 
0 0 0 
0 0 0 
0 0 0 
0 0 0 
0 0 0 
0 0 0 
0 0 0 
0 0 0 
0 0 0 
0 0 0 
0 0 0 
0 0 0 
0 0 0 
0 0 0 
0 0 0 
0 0 0 
0 0 0 
0 0 0 
0 0 0 
0 0 0 
0 0 0 
0 0 0 
0 0 0 
0 0 0 
0 0 0 
0 0 0 
0 0 0 
0 0 0 
0 0 0 
0 0 0 
0 0 0 
0 0 0 
0 0 0 
0 0 0 
0 0 0 
0 0 0 
0 0 0 
0 0 0 
0 0 0 
0 0 0 
0 0 0 
0 0 0 
0 0 0 
0 0 0 
0 0 0 
0 0 0 
0 0 0 
0 0 0 
0 0 0 
0 0 0 
0 0 0 
0 0 0 
0 0 0 
0 0 0 
0 0 0 
0 0 0 
0 0 0 
0 0 0 
0 0 0 
0 0 0 
0 0 0 
0 0 0 
0 0 0 
0 0 0 
0 0 0 
0 0 0 
0 0 0 
0 0 0 
0 0 0 
0 0 0 
0 0 0 
0 0 0 
0 0 0 
0 0 0 
0 0 0 
0 0 0 
0 0 0 
0 0 0 
0 0 0 
0 0 0 
0 0 0 
0 0 0 
0 0 0 
0 0 0 
0 0 0 
0 0 0 
0 0 0 
0 0 0 
0 0 0 
0 0 0 
0 0 0 
0 0 0 
0 0 0 
0 0 0 
0 0 0 
0 0 0 
0 0 0 
0 0 0 
0 0 0 
0 0 0 
0 0 0 
0 0 0 
0 0 0 
0 0 0 
0 0 0 
0 0 0 
0 0 0 
0 0 0 
0 0 0 
0 0 0 
0 0 0 
0 0 0 
0 0 0 
0 0 0 
0 0 0 
0 0 0 
0 0 0 
0 0 0 
0 0 0 
SCALARS mass double 1
LOOKUP_TABLE default
0
0
0
0
0
0
0
0
0
0
0
0
0
0
0
0
0
0
0
0
0
0
0
0
0
0
0
0
0
0
0
0
0
0
0
0
0
0
0
0
0
0
0
0
0
0
0
0
0
0
0
0
0.0293105
0.106614
0
0
0
0
0
0
0
0
0
0
0
0
0
0
0
0
0
0
0.0972385
0.982499
1.56397
0.254932
0
0
0
0
0
0
0
0
0
0
0
0
0
0
0
0
0.127316
1.24293
2.2586
2.31847
1.44038
0.123847
0
0
0
0
0
0
0
0
0
0
0
0
0
0
0.0065272
1.00444
2.30346
2.38329
2.32758
2.28222
1.15739
0.0477881
0
0
0
0
0
0
0
0
0
0
0
0
0
0.00110453
0.365117
1.91974
2.36671
2.4096
2.26027
1.25099
0.0815962
0
0
0
0
0
0
0
0
0
0
0
0
0
0
0.00185748
0.574291
2.09181
2.16282
0.953373
0.0743454
0
0
0
0
0
0
0
0
0
0
0
0
0
0
0
0
0.0164516
0.682505
0.703753
0.0248543
0
0
0
0
0
0
0
0
0
0
0
0
0
0
0
0
0
0
0
0
0
0
0
0
0
0
0
0
0
0
0
0
0
0
0
0
0
0
0
0
0
0
0
0
0
0
0
0
0
0
0
0
0
0
0
0
0
0
0
0
0
0
0
0
0
0
0
0
0
0
0
0
0
0
0
0
0
0
0
0
0
0
0
0
0
0
0
0
0
0
0
0
0
0
0
0
0
0
0
0
0
0
0
0
0
0
0
0
0
0
0
0
0
0
0
0
0
0
0
0
0
0
0
0
0
0
0
0
0
0
0
0
0
0
0
0
0
0
0
0
0
0
0
0
0
0
0
0
0
0
0
0
0
0
0
0
0
0
0
0
0
0
0
0
0
0
0
0
0
0
0
0
0
0
0
0
0
0
0
0
0
0
0
0
0
0
0
0
0
0
0
0
0
0
0
0
0
0
0
0
0
0
0
0
0
0
0
0
0
0
0
0
0
0
0
0
0
0
0
0
0
0
0
0
0
0
0
0
0
0
0
0
0
0
0
0
0
0
0
0
0
0
0
0
0
0
0
0
0
0
0
0
0
0
0
0
0
0
0
0
VECTORS momentum double
0 0 0 
0 0 0 
0 0 0 
0 0 0 
0 0 0 
0 0 0 
0 0 0 
0 0 0 
0 0 0 
0 0 0 
0 0 0 
0 0 0 
0 0 0 
0 0 0 
0 0 0 
0 0 0 
0 0 0 
0 0 0 
0 0 0 
0 0 0 
0 0 0 
0 0 0 
0 0 0 
0 0 0 
0 0 0 
0 0 0 
0 0 0 
0 0 0 
0 0 0 
0 0 0 
0 0 0 
0 0 0 
0 0 0 
0 0 0 
0 0 0 
0 0 0 
0 0 0 
0 0 0 
0 0 0 
0 0 0 
0 0 0 
0 0 0 
0 0 0 
0 0 0 
0 0 0 
0 0 0 
0 0 0 
0 0 0 
0 0 0 
0 0 0 
0 0 0 
0 0 0 
-0.0234583 -0.0469133 0 
-0.0754498 -0.193586 0 
0 0 0 
0 0 0 
0 0 0 
0 0 0 
0 0 0 
0 0 0 
0 0 0 
0 0 0 
0 0 0 
0 0 0 
0 0 0 
0 0 0 
0 0 0 
0 0 0 
0 0 0 
0 0 0 
0 0 0 
0 0 0 
-0.097227 -0.154116 0 
-0.906231 -1.62189 0 
-1.46256 -2.53916 0 
-0.225621 -0.30897 0 
0 0 0 
0 0 0 
0 0 0 
0 0 0 
0 0 0 
0 0 0 
0 0 0 
0 0 0 
0 0 0 
0 0 0 
0 0 0 
0 0 0 
0 0 0 
0 0 0 
0 0 0 
0 0 0 
-0.117174 -0.221924 0 
-1.26144 -2.13181 0 
-2.31835 -3.78114 0 
-2.28464 -3.3731 0 
-1.34021 -1.94422 0 
-0.119252 -0.155966 0 
0 0 0 
0 0 0 
0 0 0 
0 0 0 
0 0 0 
0 0 0 
0 0 0 
0 0 0 
0 0 0 
0 0 0 
0 0 0 
0 0 0 
0 0 0 
0 0 0 
-0.00246784 -0.0111976 0 
-1.17588 -1.96223 0 
-2.57006 -3.95969 0 
-2.74194 -3.63032 0 
-2.74951 -3.48876 0 
-2.66212 -3.08039 0 
-1.30967 -1.45868 0 
-0.0606773 -0.05394 0 
0 0 0 
0 0 0 
0 0 0 
0 0 0 
0 0 0 
0 0 0 
0 0 0 
0 0 0 
0 0 0 
0 0 0 
0 0 0 
0 0 0 
0 0 0 
-0.000285073 -0.000925255 0 
-0.483875 -0.702854 0 
-2.6318 -3.44641 0 
-3.22421 -3.90517 0 
-3.21844 -3.64623 0 
-2.99649 -3.22485 0 
-1.68516 -1.5611 0 
-0.100725 -0.100612 0 
0 0 0 
0 0 0 
0 0 0 
0 0 0 
0 0 0 
0 0 0 
0 0 0 
0 0 0 
0 0 0 
0 0 0 
0 0 0 
0 0 0 
0 0 0 
0 0 0 
-0.00230813 -0.00263642 0 
-0.90724 -1.04412 0 
-3.31869 -3.45296 0 
-3.35899 -3.30828 0 
-1.37739 -1.34666 0 
-0.10732 -0.100263 0 
0 0 0 
0 0 0 
0 0 0 
0 0 0 
0 0 0 
0 0 0 
0 0 0 
0 0 0 
0 0 0 
0 0 0 
0 0 0 
0 0 0 
0 0 0 
0 0 0 
0 0 0 
0 0 0 
-0.0287116 -0.0235495 0 
-1.31003 -1.22549 0 
-1.33793 -1.13855 0 
-0.0378721 -0.036968 0 
0 0 0 
0 0 0 
0 0 0 
0 0 0 
0 0 0 
0 0 0 
0 0 0 
0 0 0 
0 0 0 
0 0 0 
0 0 0 
0 0 0 
0 0 0 
0 0 0 
0 0 0 
0 0 0 
0 0 0 
0 0 0 
0 0 0 
0 0 0 
0 0 0 
0 0 0 
0 0 0 
0 0 0 
0 0 0 
0 0 0 
0 0 0 
0 0 0 
0 0 0 
0 0 0 
0 0 0 
0 0 0 
0 0 0 
0 0 0 
0 0 0 
0 0 0 
0 0 0 
0 0 0 
0 0 0 
0 0 0 
0 0 0 
0 0 0 
0 0 0 
0 0 0 
0 0 0 
0 0 0 
0 0 0 
0 0 0 
0 0 0 
0 0 0 
0 0 0 
0 0 0 
0 0 0 
0 0 0 
0 0 0 
0 0 0 
0 0 0 
0 0 0 
0 0 0 
0 0 0 
0 0 0 
0 0 0 
0 0 0 
0 0 0 
0 0 0 
0 0 0 
0 0 0 
0 0 0 
0 0 0 
0 0 0 
0 0 0 
0 0 0 
0 0 0 
0 0 0 
0 0 0 
0 0 0 
0 0 0 
0 0 0 
0 0 0 
0 0 0 
0 0 0 
0 0 0 
0 0 0 
0 0 0 
0 0 0 
0 0 0 
0 0 0 
0 0 0 
0 0 0 
0 0 0 
0 0 0 
0 0 0 
0 0 0 
0 0 0 
0 0 0 
0 0 0 
0 0 0 
0 0 0 
0 0 0 
0 0 0 
0 0 0 
0 0 0 
0 0 0 
0 0 0 
0 0 0 
0 0 0 
0 0 0 
0 0 0 
0 0 0 
0 0 0 
0 0 0 
0 0 0 
0 0 0 
0 0 0 
0 0 0 
0 0 0 
0 0 0 
0 0 0 
0 0 0 
0 0 0 
0 0 0 
0 0 0 
0 0 0 
0 0 0 
0 0 0 
0 0 0 
0 0 0 
0 0 0 
0 0 0 
0 0 0 
0 0 0 
0 0 0 
0 0 0 
0 0 0 
0 0 0 
0 0 0 
0 0 0 
0 0 0 
0 0 0 
0 0 0 
0 0 0 
0 0 0 
0 0 0 
0 0 0 
0 0 0 
0 0 0 
0 0 0 
0 0 0 
0 0 0 
0 0 0 
0 0 0 
0 0 0 
0 0 0 
0 0 0 
0 0 0 
0 0 0 
0 0 0 
0 0 0 
0 0 0 
0 0 0 
0 0 0 
0 0 0 
0 0 0 
0 0 0 
0 0 0 
0 0 0 
0 0 0 
0 0 0 
0 0 0 
0 0 0 
0 0 0 
0 0 0 
0 0 0 
0 0 0 
0 0 0 
0 0 0 
0 0 0 
0 0 0 
0 0 0 
0 0 0 
0 0 0 
0 0 0 
0 0 0 
0 0 0 
0 0 0 
0 0 0 
0 0 0 
0 0 0 
0 0 0 
0 0 0 
0 0 0 
0 0 0 
0 0 0 
0 0 0 
0 0 0 
0 0 0 
0 0 0 
0 0 0 
0 0 0 
0 0 0 
0 0 0 
0 0 0 
0 0 0 
0 0 0 
0 0 0 
0 0 0 
0 0 0 
0 0 0 
0 0 0 
0 0 0 
0 0 0 
0 0 0 
0 0 0 
0 0 0 
0 0 0 
0 0 0 
0 0 0 
0 0 0 
0 0 0 
0 0 0 
0 0 0 
0 0 0 
0 0 0 
0 0 0 
0 0 0 
0 0 0 
0 0 0 
0 0 0 
0 0 0 
0 0 0 
0 0 0 
0 0 0 
0 0 0 
0 0 0 
0 0 0 
0 0 0 
0 0 0 
0 0 0 
0 0 0 
0 0 0 
0 0 0 
0 0 0 
0 0 0 
0 0 0 
0 0 0 
0 0 0 
0 0 0 
0 0 0 
0 0 0 
0 0 0 
0 0 0 
0 0 0 
0 0 0 
0 0 0 
0 0 0 
0 0 0 
0 0 0 
0 0 0 
0 0 0 
0 0 0 
VECTORS force double
0 0 0 
0 0 0 
0 0 0 
0 0 0 
0 0 0 
0 0 0 
0 0 0 
0 0 0 
0 0 0 
0 0 0 
0 0 0 
0 0 0 
0 0 0 
0 0 0 
0 0 0 
0 0 0 
0 0 0 
0 0 0 
0 0 0 
0 0 0 
0 0 0 
0 0 0 
0 0 0 
0 0 0 
0 0 0 
0 0 0 
0 0 0 
0 0 0 
0 0 0 
0 0 0 
0 0 0 
0 0 0 
0 0 0 
0 0 0 
0 0 0 
0 0 0 
0 0 0 
0 0 0 
0 0 0 
0 0 0 
0 0 0 
0 0 0 
0 0 0 
0 0 0 
0 0 0 
0 0 0 
0 0 0 
0 0 0 
0 0 0 
0 0 0 
0 0 0 
0 0 0 
5.00946 7.70166 0 
25.8949 5.10748 0 
0 0 0 
0 0 0 
0 0 0 
0 0 0 
0 0 0 
0 0 0 
0 0 0 
0 0 0 
0 0 0 
0 0 0 
0 0 0 
0 0 0 
0 0 0 
0 0 0 
0 0 0 
0 0 0 
0 0 0 
0 0 0 
7.44545 1.34672 0 
64.1084 16.3189 0 
-0.571178 -97.0031 0 
45.3997 5.68504 0 
0 0 0 
0 0 0 
0 0 0 
0 0 0 
0 0 0 
0 0 0 
0 0 0 
0 0 0 
0 0 0 
0 0 0 
0 0 0 
0 0 0 
0 0 0 
0 0 0 
0 0 0 
0 0 0 
-11.2398 2.2918 0 
41.1153 21.6408 0 
37.2042 -30.6917 0 
48.7312 21.7624 0 
14.2297 -59.0332 0 
9.00298 -4.31849 0 
0 0 0 
0 0 0 
0 0 0 
0 0 0 
0 0 0 
0 0 0 
0 0 0 
0 0 0 
0 0 0 
0 0 0 
0 0 0 
0 0 0 
0 0 0 
0 0 0 