# vtk DataFile Version 3.0
Frame: 31, Time: 0.5
ASCII
DATASET UNSTRUCTURED_GRID
POINTS 441 double
0 0 0 
0.05 0 0 
0.1 0 0 
0.15 0 0 
0.2 0 0 
0.25 0 0 
0.3 0 0 
0.35 0 0 
0.4 0 0 
0.45 0 0 
0.5 0 0 
0.55 0 0 
0.6 0 0 
0.65 0 0 
0.7 0 0 
0.75 0 0 
0.8 0 0 
0.85 0 0 
0.9 0 0 
0.95 0 0 
1 0 0 
0 0.05 0 
0.05 0.05 0 
0.1 0.05 0 
0.15 0.05 0 
0.2 0.05 0 
0.25 0.05 0 
0.3 0.05 0 
0.35 0.05 0 
0.4 0.05 0 
0.45 0.05 0 
0.5 0.05 0 
0.55 0.05 0 
0.6 0.05 0 
0.65 0.05 0 
0.7 0.05 0 
0.75 0.05 0 
0.8 0.05 0 
0.85 0.05 0 
0.9 0.05 0 
0.95 0.05 0 
1 0.05 0 
0 0.1 0 
0.05 0.1 0 
0.1 0.1 0 
0.15 0.1 0 
0.2 0.1 0 
0.25 0.1 0 
0.3 0.1 0 
0.35 0.1 0 
0.4 0.1 0 
0.45 0.1 0 
0.5 0.1 0 
0.55 0.1 0 
0.6 0.1 0 
0.65 0.1 0 
0.7 0.1 0 
0.75 0.1 0 
0.8 0.1 0 
0.85 0.1 0 
0.9 0.1 0 
0.95 0.1 0 
1 0.1 0 
0 0.15 0 
0.05 0.15 0 
0.1 0.15 0 
0.15 0.15 0 
0.2 0.15 0 
0.25 0.15 0 
0.3 0.15 0 
0.35 0.15 0 
0.4 0.15 0 
0.45 0.15 0 
0.5 0.15 0 
0.55 0.15 0 
0.6 0.15 0 
0.65 0.15 0 
0.7 0.15 0 
0.75 0.15 0 
0.8 0.15 0 
0.85 0.15 0 
0.9 0.15 0 
0.95 0.15 0 
1 0.15 0 
0 0.2 0 
0.05 0.2 0 
0.1 0.2 0 
0.15 0.2 0 
0.2 0.2 0 
0.25 0.2 0 
0.3 0.2 0 
0.35 0.2 0 
0.4 0.2 0 
0.45 0.2 0 
0.5 0.2 0 
0.55 0.2 0 
0.6 0.2 0 
0.65 0.2 0 
0.7 0.2 0 
0.75 0.2 0 
0.8 0.2 0 
0.85 0.2 0 
0.9 0.2 0 
0.95 0.2 0 
1 0.2 0 
0 0.25 0 
0.05 0.25 0 
0.1 0.25 0 
0.15 0.25 0 
0.2 0.25 0 
0.25 0.25 0 
0.3 0.25 0 
0.35 0.25 0 
0.4 0.25 0 
0.45 0.25 0 
0.5 0.25 0 
0.55 0.25 0 
0.6 0.25 0 
0.65 0.25 0 
0.7 0.25 0 
0.75 0.25 0 
0.8 0.25 0 
0.85 0.25 0 
0.9 0.25 0 
0.95 0.25 0 
1 0.25 0 
0 0.3 0 
0.05 0.3 0 
0.1 0.3 0 
0.15 0.3 0 
0.2 0.3 0 
0.25 0.3 0 
0.3 0.3 0 
0.35 0.3 0 
0.4 0.3 0 
0.45 0.3 0 
0.5 0.3 0 
0.55 0.3 0 
0.6 0.3 0 
0.65 0.3 0 
0.7 0.3 0 
0.75 0.3 0 
0.8 0.3 0 
0.85 0.3 0 
0.9 0.3 0 
0.95 0.3 0 
1 0.3 0 
0 0.35 0 
0.05 0.35 0 
0.1 0.35 0 
0.15 0.35 0 
0.2 0.35 0 
0.25 0.35 0 
0.3 0.35 0 
0.35 0.35 0 
0.4 0.35 0 
0.45 0.35 0 
0.5 0.35 0 
0.55 0.35 0 
0.6 0.35 0 
0.65 0.35 0 
0.7 0.35 0 
0.75 0.35 0 
0.8 0.35 0 
0.85 0.35 0 
0.9 0.35 0 
0.95 0.35 0 
1 0.35 0 
0 0.4 0 
0.05 0.4 0 
0.1 0.4 0 
0.15 0.4 0 
0.2 0.4 0 
0.25 0.4 0 
0.3 0.4 0 
0.35 0.4 0 
0.4 0.4 0 
0.45 0.4 0 
0.5 0.4 0 
0.55 0.4 0 
0.6 0.4 0 
0.65 0.4 0 
0.7 0.4 0 
0.75 0.4 0 
0.8 0.4 0 
0.85 0.4 0 
0.9 0.4 0 
0.95 0.4 0 
1 0.4 0 
0 0.45 0 
0.05 0.45 0 
0.1 0.45 0 
0.15 0.45 0 
0.2 0.45 0 
0.25 0.45 0 
0.3 0.45 0 
0.35 0.45 0 
0.4 0.45 0 
0.45 0.45 0 
0.5 0.45 0 
0.55 0.45 0 
0.6 0.45 0 
0.65 0.45 0 
0.7 0.45 0 
0.75 0.45 0 
0.8 0.45 0 
0.85 0.45 0 
0.9 0.45 0 
0.95 0.45 0 
1 0.45 0 
0 0.5 0 
0.05 0.5 0 
0.1 0.5 0 
0.15 0.5 0 
0.2 0.5 0 
0.25 0.5 0 
0.3 0.5 0 
0.35 0.5 0 
0.4 0.5 0 
0.45 0.5 0 
0.5 0.5 0 
0.55 0.5 0 
0.6 0.5 0 
0.65 0.5 0 
0.7 0.5 0 
0.75 0.5 0 
0.8 0.5 0 
0.85 0.5 0 
0.9 0.5 0 
0.95 0.5 0 
1 0.5 0 
0 0.55 0 
0.05 0.55 0 
0.1 0.55 0 
0.15 0.55 0 
0.2 0.55 0 
0.25 0.55 0 
0.3 0.55 0 
0.35 0.55 0 
0.4 0.55 0 
0.45 0.55 0 
0.5 0.55 0 
0.55 0.55 0 
0.6 0.55 0 
0.65 0.55 0 
0.7 0.55 0 
0.75 0.55 0 
0.8 0.55 0 
0.85 0.55 0 
0.9 0.55 0 
0.95 0.55 0 
1 0.55 0 
0 0.6 0 
0.05 0.6 0 
0.1 0.6 0 
0.15 0.6 0 
0.2 0.6 0 
0.25 0.6 0 
0.3 0.6 0 
0.35 0.6 0 
0.4 0.6 0 
0.45 0.6 0 
0.5 0.6 0 
0.55 0.6 0 
0.6 0.6 0 
0.65 0.6 0 
0.7 0.6 0 
0.75 0.6 0 
0.8 0.6 0 
0.85 0.6 0 
0.9 0.6 0 
0.95 0.6 0 
1 0.6 0 
0 0.65 0 
0.05 0.65 0 
0.1 0.65 0 
0.15 0.65 0 
0.2 0.65 0 
0.25 0.65 0 
0.3 0.65 0 
0.35 0.65 0 
0.4 0.65 0 
0.45 0.65 0 
0.5 0.65 0 
0.55 0.65 0 
0.6 0.65 0 
0.65 0.65 0 
0.7 0.65 0 
0.75 0.65 0 
0.8 0.65 0 
0.85 0.65 0 
0.9 0.65 0 
0.95 0.65 0 
1 0.65 0 
0 0.7 0 
0.05 0.7 0 
0.1 0.7 0 
0.15 0.7 0 
0.2 0.7 0 
0.25 0.7 0 
0.3 0.7 0 
0.35 0.7 0 
0.4 0.7 0 
0.45 0.7 0 
0.5 0.7 0 
0.55 0.7 0 
0.6 0.7 0 
0.65 0.7 0 
0.7 0.7 0 
0.75 0.7 0 
0.8 0.7 0 
0.85 0.7 0 
0.9 0.7 0 
0.95 0.7 0 
1 0.7 0 
0 0.75 0 
0.05 0.75 0 
0.1 0.75 0 
0.15 0.75 0 
0.2 0.75 0 
0.25 0.75 0 
0.3 0.75 0 
0.35 0.75 0 
0.4 0.75 0 
0.45 0.75 0 
0.5 0.75 0 
0.55 0.75 0 
0.6 0.75 0 
0.65 0.75 0 
0.7 0.75 0 
0.75 0.75 0 
0.8 0.75 0 
0.85 0.75 0 
0.9 0.75 0 
0.95 0.75 0 
1 0.75 0 
0 0.8 0 
0.05 0.8 0 
0.1 0.8 0 
0.15 0.8 0 
0.2 0.8 0 
0.25 0.8 0 
0.3 0.8 0 
0.35 0.8 0 
0.4 0.8 0 
0.45 0.8 0 
0.5 0.8 0 
0.55 0.8 0 
0.6 0.8 0 
0.65 0.8 0 
0.7 0.8 0 
0.75 0.8 0 
0.8 0.8 0 
0.85 0.8 0 
0.9 0.8 0 
0.95 0.8 0 
1 0.8 0 
0 0.85 0 
0.05 0.85 0 
0.1 0.85 0 
0.15 0.85 0 
0.2 0.85 0 
0.25 0.85 0 
0.3 0.85 0 
0.35 0.85 0 
0.4 0.85 0 
0.45 0.85 0 
0.5 0.85 0 
0.55 0.85 0 
0.6 0.85 0 
0.65 0.85 0 
0.7 0.85 0 
0.75 0.85 0 
0.8 0.85 0 
0.85 0.85 0 
0.9 0.85 0 
0.95 0.85 0 
1 0.85 0 
0 0.9 0 
0.05 0.9 0 
0.1 0.9 0 
0.15 0.9 0 
0.2 0.9 0 
0.25 0.9 0 
0.3 0.9 0 
0.35 0.9 0 
0.4 0.9 0 
0.45 0.9 0 
0.5 0.9 0 
0.55 0.9 0 
0.6 0.9 0 
0.65 0.9 0 
0.7 0.9 0 
0.75 0.9 0 
0.8 0.9 0 
0.85 0.9 0 
0.9 0.9 0 
0.95 0.9 0 
1 0.9 0 
0 0.95 0 
0.05 0.95 0 
0.1 0.95 0 
0.15 0.95 0 
0.2 0.95 0 
0.25 0.95 0 
0.3 0.95 0 
0.35 0.95 0 
0.4 0.95 0 
0.45 0.95 0 
0.5 0.95 0 
0.55 0.95 0 
0.6 0.95 0 
0.65 0.95 0 
0.7 0.95 0 
0.75 0.95 0 
0.8 0.95 0 
0.85 0.95 0 
0.9 0.95 0 
0.95 0.95 0 
1 0.95 0 
0 1 0 
0.05 1 0 
0.1 1 0 
0.15 1 0 
0.2 1 0 
0.25 1 0 
0.3 1 0 
0.35 1 0 
0.4 1 0 
0.45 1 0 
0.5 1 0 
0.55 1 0 
0.6 1 0 
0.65 1 0 
0.7 1 0 
0.75 1 0 
0.8 1 0 
0.85 1 0 
0.9 1 0 
0.95 1 0 
1 1 0 
CELLS 400 2000
4 0 1 21 22
4 1 2 22 23
4 2 3 23 24
4 3 4 24 25
4 4 5 25 26
4 5 6 26 27
4 6 7 27 28
4 7 8 28 29
4 8 9 29 30
4 9 10 30 31
4 10 11 31 32
4 11 12 32 33
4 12 13 33 34
4 13 14 34 35
4 14 15 35 36
4 15 16 36 37
4 16 17 37 38
4 17 18 38 39
4 18 19 39 40
4 19 20 40 41
4 21 22 42 43
4 22 23 43 44
4 23 24 44 45
4 24 25 45 46
4 25 26 46 47
4 26 27 47 48
4 27 28 48 49
4 28 29 49 50
4 29 30 50 51
4 30 31 51 52
4 31 32 52 53
4 32 33 53 54
4 33 34 54 55
4 34 35 55 56
4 35 36 56 57
4 36 37 57 58
4 37 38 58 59
4 38 39 59 60
4 39 40 60 61
4 40 41 61 62
4 42 43 63 64
4 43 44 64 65
4 44 45 65 66
4 45 46 66 67
4 46 47 67 68
4 47 48 68 69
4 48 49 69 70
4 49 50 70 71
4 50 51 71 72
4 51 52 72 73
4 52 53 73 74
4 53 54 74 75
4 54 55 75 76
4 55 56 76 77
4 56 57 77 78
4 57 58 78 79
4 58 59 79 80
4 59 60 80 81
4 60 61 81 82
4 61 62 82 83
4 63 64 84 85
4 64 65 85 86
4 65 66 86 87
4 66 67 87 88
4 67 68 88 89
4 68 69 89 90
4 69 70 90 91
4 70 71 91 92
4 71 72 92 93
4 72 73 93 94
4 73 74 94 95
4 74 75 95 96
4 75 76 96 97
4 76 77 97 98
4 77 78 98 99
4 78 79 99 100
4 79 80 100 101
4 80 81 101 102
4 81 82 102 103
4 82 83 103 104
4 84 85 105 106
4 85 86 106 107
4 86 87 107 108
4 87 88 108 109
4 88 89 109 110
4 89 90 110 111
4 90 91 111 112
4 91 92 112 113
4 92 93 113 114
4 93 94 114 115
4 94 95 115 116
4 95 96 116 117
4 96 97 117 118
4 97 98 118 119
4 98 99 119 120
4 99 100 120 121
4 100 101 121 122
4 101 102 122 123
4 102 103 123 124
4 103 104 124 125
4 105 106 126 127
4 106 107 127 128
4 107 108 128 129
4 108 109 129 130
4 109 110 130 131
4 110 111 131 132
4 111 112 132 133
4 112 113 133 134
4 113 114 134 135
4 114 115 135 136
4 115 116 136 137
4 116 117 137 138
4 117 118 138 139
4 118 119 139 140
4 119 120 140 141
4 120 121 141 142
4 121 122 142 143
4 122 123 143 144
4 123 124 144 145
4 124 125 145 146
4 126 127 147 148
4 127 128 148 149
4 128 129 149 150
4 129 130 150 151
4 130 131 151 152
4 131 132 152 153
4 132 133 153 154
4 133 134 154 155
4 134 135 155 156
4 135 136 156 157
4 136 137 157 158
4 137 138 158 159
4 138 139 159 160
4 139 140 160 161
4 140 141 161 162
4 141 142 162 163
4 142 143 163 164
4 143 144 164 165
4 144 145 165 166
4 145 146 166 167
4 147 148 168 169
4 148 149 169 170
4 149 150 170 171
4 150 151 171 172
4 151 152 172 173
4 152 153 173 174
4 153 154 174 175
4 154 155 175 176
4 155 156 176 177
4 156 157 177 178
4 157 158 178 179
4 158 159 179 180
4 159 160 180 181
4 160 161 181 182
4 161 162 182 183
4 162 163 183 184
4 163 164 184 185
4 164 165 185 186
4 165 166 186 187
4 166 167 187 188
4 168 169 189 190
4 169 170 190 191
4 170 171 191 192
4 171 172 192 193
4 172 173 193 194
4 173 174 194 195
4 174 175 195 196
4 175 176 196 197
4 176 177 197 198
4 177 178 198 199
4 178 179 199 200
4 179 180 200 201
4 180 181 201 202
4 181 182 202 203
4 182 183 203 204
4 183 184 204 205
4 184 185 205 206
4 185 186 206 207
4 186 187 207 208
4 187 188 208 209
4 189 190 210 211
4 190 191 211 212
4 191 192 212 213
4 192 193 213 214
4 193 194 214 215
4 194 195 215 216
4 195 196 216 217
4 196 197 217 218
4 197 198 218 219
4 198 199 219 220
4 199 200 220 221
4 200 201 221 222
4 201 202 222 223
4 202 203 223 224
4 203 204 224 225
4 204 205 225 226
4 205 206 226 227
4 206 207 227 228
4 207 208 228 229
4 208 209 229 230
4 210 211 231 232
4 211 212 232 233
4 212 213 233 234
4 213 214 234 235
4 214 215 235 236
4 215 216 236 237
4 216 217 237 238
4 217 218 238 239
4 218 219 239 240
4 219 220 240 241
4 220 221 241 242
4 221 222 242 243
4 222 223 243 244
4 223 224 244 245
4 224 225 245 246
4 225 226 246 247
4 226 227 247 248
4 227 228 248 249
4 228 229 249 250
4 229 230 250 251
4 231 232 252 253
4 232 233 253 254
4 233 234 254 255
4 234 235 255 256
4 235 236 256 257
4 236 237 257 258
4 237 238 258 259
4 238 239 259 260
4 239 240 260 261
4 240 241 261 262
4 241 242 262 263
4 242 243 263 264
4 243 244 264 265
4 244 245 265 266
4 245 246 266 267
4 246 247 267 268
4 247 248 268 269
4 248 249 269 270
4 249 250 270 271
4 250 251 271 272
4 252 253 273 274
4 253 254 274 275
4 254 255 275 276
4 255 256 276 277
4 256 257 277 278
4 257 258 278 279
4 258 259 279 280
4 259 260 280 281
4 260 261 281 282
4 261 262 282 283
4 262 263 283 284
4 263 264 284 285
4 264 265 285 286
4 265 266 286 287
4 266 267 287 288
4 267 268 288 289
4 268 269 289 290
4 269 270 290 291
4 270 271 291 292
4 271 272 292 293
4 273 274 294 295
4 274 275 295 296
4 275 276 296 297
4 276 277 297 298
4 277 278 298 299
4 278 279 299 300
4 279 280 300 301
4 280 281 301 302
4 281 282 302 303
4 282 283 303 304
4 283 284 304 305
4 284 285 305 306
4 285 286 306 307
4 286 287 307 308
4 287 288 308 309
4 288 289 309 310
4 289 290 310 311
4 290 291 311 312
4 291 292 312 313
4 292 293 313 314
4 294 295 315 316
4 295 296 316 317
4 296 297 317 318
4 297 298 318 319
4 298 299 319 320
4 299 300 320 321
4 300 301 321 322
4 301 302 322 323
4 302 303 323 324
4 303 304 324 325
4 304 305 325 326
4 305 306 326 327
4 306 307 327 328
4 307 308 328 329
4 308 309 329 330
4 309 310 330 331
4 310 311 331 332
4 311 312 332 333
4 312 313 333 334
4 313 314 334 335
4 315 316 336 337
4 316 317 337 338
4 317 318 338 339
4 318 319 339 340
4 319 320 340 341
4 320 321 341 342
4 321 322 342 343
4 322 323 343 344
4 323 324 344 345
4 324 325 345 346
4 325 326 346 347
4 326 327 347 348
4 327 328 348 349
4 328 329 349 350
4 329 330 350 351
4 330 331 351 352
4 331 332 352 353
4 332 333 353 354
4 333 334 354 355
4 334 335 355 356
4 336 337 357 358
4 337 338 358 359
4 338 339 359 360
4 339 340 360 361
4 340 341 361 362
4 341 342 362 363
4 342 343 363 364
4 343 344 364 365
4 344 345 365 366
4 345 346 366 367
4 346 347 367 368
4 347 348 368 369
4 348 349 369 370
4 349 350 370 371
4 350 351 371 372
4 351 352 372 373
4 352 353 373 374
4 353 354 374 375
4 354 355 375 376
4 355 356 376 377
4 357 358 378 379
4 358 359 379 380
4 359 360 380 381
4 360 361 381 382
4 361 362 382 383
4 362 363 383 384
4 363 364 384 385
4 364 365 385 386
4 365 366 386 387
4 366 367 387 388
4 367 368 388 389
4 368 369 389 390
4 369 370 390 391
4 370 371 391 392
4 371 372 392 393
4 372 373 393 394
4 373 374 394 395
4 374 375 395 396
4 375 376 396 397
4 376 377 397 398
4 378 379 399 400
4 379 380 400 401
4 380 381 401 402
4 381 382 402 403
4 382 383 403 404
4 383 384 404 405
4 384 385 405 406
4 385 386 406 407
4 386 387 407 408
4 387 388 408 409
4 388 389 409 410
4 389 390 410 411
4 390 391 411 412
4 391 392 412 413
4 392 393 413 414
4 393 394 414 415
4 394 395 415 416
4 395 396 416 417
4 396 397 417 418
4 397 398 418 419
4 399 400 420 421
4 400 401 421 422
4 401 402 422 423
4 402 403 423 424
4 403 404 424 425
4 404 405 425 426
4 405 406 426 427
4 406 407 427 428
4 407 408 428 429
4 408 409 429 430
4 409 410 430 431
4 410 411 431 432
4 411 412 432 433
4 412 413 433 434
4 413 414 434 435
4 414 415 435 436
4 415 416 436 437
4 416 417 437 438
4 417 418 438 439
4 418 419 439 440
CELL_TYPES 400
8
8
8
8
8
8
8
8
8
8
8
8
8
8
8
8
8
8
8
8
8
8
8
8
8
8
8
8
8
8
8
8
8
8
8
8
8
8
8
8
8
8
8
8
8
8
8
8
8
8
8
8
8
8
8
8
8
8
8
8
8
8
8
8
8
8
8
8
8
8
8
8
8
8
8
8
8
8
8
8
8
8
8
8
8
8
8
8
8
8
8
8
8
8
8
8
8
8
8
8
8
8
8
8
8
8
8
8
8
8
8
8
8
8
8
8
8
8
8
8
8
8
8
8
8
8
8
8
8
8
8
8
8
8
8
8
8
8
8
8
8
8
8
8
8
8
8
8
8
8
8
8
8
8
8
8
8
8
8
8
8
8
8
8
8
8
8
8
8
8
8
8
8
8
8
8
8
8
8
8
8
8
8
8
8
8
8
8
8
8
8
8
8
8
8
8
8
8
8
8
8
8
8
8
8
8
8
8
8
8
8
8
8
8
8
8
8
8
8
8
8
8
8
8
8
8
8
8
8
8
8
8
8
8
8
8
8
8
8
8
8
8
8
8
8
8
8
8
8
8
8
8
8
8
8
8
8
8
8
8
8
8
8
8
8
8
8
8
8
8
8
8
8
8
8
8
8
8
8
8
8
8
8
8
8
8
8
8
8
8
8
8
8
8
8
8
8
8
8
8
8
8
8
8
8
8
8
8
8
8
8
8
8
8
8
8
8
8
8
8
8
8
8
8
8
8
8
8
8
8
8
8
8
8
8
8
8
8
8
8
8
8
8
8
8
8
8
8
8
8
8
8
8
8
8
8
8
8
8
8
8
8
8
8
8
8
8
8
8
8
8
8
8
8
8
8
8
8
8
8
8
8
8
8
8
8
8
8
8
8
8
8
8
8
8
8
8
8
8
8
POINT_DATA 441
VECTORS displacement double
0 0 0 
0 0 0 
0 0 0 
0 0 0 
0 0 0 
0 0 0 
0 0 0 
0 0 0 
0 0 0 
0 0 0 
0 0 0 
0 0 0 
0 0 0 
0 0 0 
0 0 0 
0 0 0 
0 0 0 
0 0 0 
0 0 0 
0 0 0 
0 0 0 
0 0 0 
0 0 0 
0 0 0 
0 0 0 
0 0 0 
0 0 0 
0 0 0 
-0.00139954 0.00177556 0 
0.000393244 -9.80652e-06 0 
0.000373502 -0.000259139 0 
0 0 0 
0 0 0 
0 0 0 
0 0 0 
0 0 0 
0 0 0 
0 0 0 
0 0 0 
0 0 0 
0 0 0 
0 0 0 
0 0 0 
0 0 0 
0 0 0 
0 0 0 
0 0 0 
0 0 0 
0.000688057 -0.000828371 0 
0.000367813 -0.00043988 0 
0.000267278 -0.000215678 0 
0.000238603 -1.37221e-05 0 
0.000133222 -0.00038901 0 
0 0 0 
0 0 0 
0 0 0 
0 0 0 
0 0 0 
0 0 0 
0 0 0 
0 0 0 
0 0 0 
0 0 0 
0 0 0 
0 0 0 
0 0 0 
0 0 0 
0 0 0 
0.000245883 -0.00148228 0 
-0.000131769 -0.000952323 0 
-7.16199e-05 -0.000575251 0 
0.000107306 -0.000146535 0 
0.000158439 2.20352e-05 0 
5.55401e-05 0.000271395 0 
9.70583e-05 0.000359124 0 
0 0 0 
0 0 0 
0 0 0 
0 0 0 
0 0 0 
0 0 0 
0 0 0 
0 0 0 
0 0 0 
0 0 0 
0 0 0 
0 0 0 
0 0 0 
0 0 0 
-0.000379241 -0.00126223 0 
-0.000385354 -0.000843365 0 
-0.000455194 -0.000510782 0 
-0.000447251 -0.000199724 0 
-0.000251305 6.98762e-05 0 
-0.000142246 0.000266651 0 
-0.000209382 0.000483746 0 
0 0 0 
0 0 0 
0 0 0 
0 0 0 
0 0 0 
0 0 0 
0 0 0 
0 0 0 
0 0 0 
0 0 0 
0 0 0 
0 0 0 
0 0 0 
0 0 0 
-0.000428788 -0.000776529 0 
-0.000867508 -0.00083686 0 
-0.000784728 -0.000388981 0 
-0.000816916 -0.000205624 0 
-0.000601507 -1.24383e-05 0 
-0.000575489 0.000393288 0 
-0.00052349 0.000434391 0 
0 0 0 
0 0 0 
0 0 0 
0 0 0 
0 0 0 
0 0 0 
0 0 0 
0 0 0 
0 0 0 
0 0 0 
0 0 0 
0 0 0 
0 0 0 
0 0 0 
0 0 0 
-0.00115246 -0.000945264 0 
-0.000982855 -0.000413976 0 
-0.00101693 -0.000145118 0 
-0.00102965 5.982e-05 0 
-0.001087 0.000325777 0 
7.46859e-05 0.0020626 0 
0 0 0 
0 0 0 
0 0 0 
0 0 0 
0 0 0 
0 0 0 
0 0 0 
0 0 0 
0 0 0 
0 0 0 
0 0 0 
0 0 0 
0 0 0 
0 0 0 
0 0 0 
0 0 0 
-0.00130288 -0.000496418 0 
-0.00132251 -0.000133823 0 
-0.00137827 0.000243625 0 
-0.000771822 0.00202161 0 
0 0 0 
0 0 0 
0 0 0 
0 0 0 
0 0 0 
0 0 0 
0 0 0 
0 0 0 
0 0 0 
0 0 0 
0 0 0 
0 0 0 
0 0 0 
0 0 0 
0 0 0 
0 0 0 
0 0 0 
0 0 0 
0 0 0 
0 0 0 
0 0 0 
0 0 0 
0 0 0 
0 0 0 
0 0 0 
0 0 0 
0 0 0 
0 0 0 
0 0 0 
0 0 0 
0 0 0 
0 0 0 
0 0 0 
0 0 0 
0 0 0 
0 0 0 
0 0 0 
0 0 0 
0 0 0 
0 0 0 
0 0 0 
0 0 0 
0 0 0 
0 0 0 
0 0 0 
0 0 0 
0 0 0 
0 0 0 
0 0 0 
0 0 0 
0 0 0 
0 0 0 
0 0 0 
0 0 0 
0 0 0 
0 0 0 
0 0 0 
0 0 0 
0 0 0 
0 0 0 
0 0 0 
0 0 0 
0 0 0 
0 0 0 
0 0 0 
0 0 0 
0 0 0 
0 0 0 
0 0 0 
0 0 0 
0 0 0 
0 0 0 
0 0 0 
0 0 0 
0 0 0 
0 0 0 
0 0 0 
0 0 0 
0 0 0 
0 0 0 
0 0 0 
0 0 0 
0 0 0 
0 0 0 
0 0 0 
0 0 0 
0 0 0 
0 0 0 
0 0 0 
0 0 0 
0 0 0 
0 0 0 
0 0 0 
0 0 0 
0 0 0 
0 0 0 
0 0 0 
0 0 0 
0 0 0 
0 0 0 
0 0 0 
0 0 0 
0 0 0 
0 0 0 
0 0 0 
0 0 0 
0 0 0 
0 0 0 
0 0 0 
0 0 0 
0 0 0 
0 0 0 
0 0 0 
0 0 0 
0 0 0 
0 0 0 
0 0 0 
0 0 0 
0 0 0 
0 0 0 
0 0 0 
0 0 0 
0 0 0 
0 0 0 
0 0 0 
0 0 0 
0 0 0 
0 0 0 
0 0 0 
0 0 0 
0 0 0 
0 0 0 
0 0 0 
0 0 0 
0 0 0 
0 0 0 
0 0 0 
0 0 0 
0 0 0 
0 0 0 
0 0 0 
0 0 0 
0 0 0 
0 0 0 
0 0 0 
0 0 0 
0 0 0 
0 0 0 
0 0 0 
0 0 0 
0 0 0 
0 0 0 
0 0 0 
0 0 0 
0 0 0 
0 0 0 
0 0 0 
0 0 0 
0 0 0 
0 0 0 
0 0 0 
0 0 0 
0 0 0 
0 0 0 
0 0 0 
0 0 0 
0 0 0 
0 0 0 
0 0 0 
0 0 0 
0 0 0 
0 0 0 
0 0 0 
0 0 0 
0 0 0 
0 0 0 
0 0 0 
0 0 0 
0 0 0 
0 0 0 
0 0 0 
0 0 0 
0 0 0 
0 0 0 
0 0 0 
0 0 0 
0 0 0 
0 0 0 
0 0 0 
0 0 0 
0 0 0 
0 0 0 
0 0 0 
0 0 0 
0 0 0 
0 0 0 
0 0 0 
0 0 0 
0 0 0 
0 0 0 
0 0 0 
0 0 0 
0 0 0 
0 0 0 
0 0 0 
0 0 0 
0 0 0 
0 0 0 
0 0 0 
0 0 0 
0 0 0 
0 0 0 
0 0 0 
0 0 0 
0 0 0 
0 0 0 
0 0 0 
0 0 0 
0 0 0 
0 0 0 
0 0 0 
0 0 0 
0 0 0 
0 0 0 
0 0 0 
0 0 0 
0 0 0 
0 0 0 
0 0 0 
0 0 0 
0 0 0 
0 0 0 
0 0 0 
0 0 0 
0 0 0 
0 0 0 
0 0 0 
0 0 0 
0 0 0 
0 0 0 
0 0 0 
0 0 0 
0 0 0 
0 0 0 
0 0 0 
0 0 0 
0 0 0 
0 0 0 
0 0 0 
0 0 0 
0 0 0 
0 0 0 
0 0 0 
0 0 0 
0 0 0 
0 0 0 
0 0 0 
0 0 0 
0 0 0 
0 0 0 
0 0 0 
0 0 0 
0 0 0 
0 0 0 
0 0 0 
0 0 0 
0 0 0 
0 0 0 
0 0 0 
0 0 0 
0 0 0 
0 0 0 
0 0 0 
0 0 0 
0 0 0 
0 0 0 
0 0 0 
0 0 0 
0 0 0 
0 0 0 
0 0 0 
0 0 0 
0 0 0 
VECTORS velocity double
0 0 0 
0 0 0 
0 0 0 
0 0 0 
0 0 0 
0 0 0 
0 0 0 
0 0 0 
0 0 0 
0 0 0 
0 0 0 
0 0 0 
0 0 0 
0 0 0 
0 0 0 
0 0 0 
0 0 0 
0 0 0 
0 0 0 
0 0 0 
0 0 0 
0 0 0 
0 0 0 
0 0 0 
0 0 0 
0 0 0 
0 0 0 
0 0 0 
-1.39954 1.77556 0 
0.393244 -0.00980652 0 
0.373502 -0.259139 0 
0 0 0 
0 0 0 
0 0 0 
0 0 0 
0 0 0 
0 0 0 
0 0 0 
0 0 0 
0 0 0 
0 0 0 
0 0 0 
0 0 0 
0 0 0 
0 0 0 
0 0 0 
0 0 0 
0 0 0 
0.688057 -0.828371 0 
0.367813 -0.43988 0 
0.267278 -0.215678 0 
0.238603 -0.0137221 0 
0.133222 -0.38901 0 
0 0 0 
0 0 0 
0 0 0 
0 0 0 
0 0 0 
0 0 0 
0 0 0 
0 0 0 
0 0 0 
0 0 0 
0 0 0 
0 0 0 
0 0 0 
0 0 0 
0 0 0 
0.245883 -1.48228 0 
-0.131769 -0.952323 0 
-0.0716199 -0.575251 0 
0.107306 -0.146535 0 
0.158439 0.0220352 0 
0.0555401 0.271395 0 
0.0970583 0.359124 0 
0 0 0 
0 0 0 
0 0 0 
0 0 0 
0 0 0 
0 0 0 
0 0 0 
0 0 0 
0 0 0 
0 0 0 
0 0 0 
0 0 0 
0 0 0 
0 0 0 
-0.379241 -1.26223 0 
-0.385354 -0.843365 0 
-0.455194 -0.510782 0 
-0.447251 -0.199724 0 
-0.251305 0.0698762 0 
-0.142246 0.266651 0 
-0.209382 0.483746 0 
0 0 0 
0 0 0 
0 0 0 
0 0 0 
0 0 0 
0 0 0 
0 0 0 
0 0 0 
0 0 0 
0 0 0 
0 0 0 
0 0 0 
0 0 0 
0 0 0 
-0.428788 -0.776529 0 
-0.867508 -0.83686 0 
-0.784728 -0.388981 0 
-0.816916 -0.205624 0 
-0.601507 -0.0124383 0 
-0.575489 0.393288 0 
-0.52349 0.434391 0 
0 0 0 
0 0 0 
0 0 0 
0 0 0 
0 0 0 
0 0 0 
0 0 0 
0 0 0 
0 0 0 
0 0 0 
0 0 0 
0 0 0 
0 0 0 
0 0 0 
0 0 0 
-1.15246 -0.945264 0 
-0.982855 -0.413976 0 
-1.01693 -0.145118 0 
-1.02965 0.05982 0 
-1.087 0.325777 0 
0.0746859 2.0626 0 
0 0 0 
0 0 0 
0 0 0 
0 0 0 
0 0 0 
0 0 0 
0 0 0 
0 0 0 
0 0 0 
0 0 0 
0 0 0 
0 0 0 
0 0 0 
0 0 0 
0 0 0 
0 0 0 
-1.30288 -0.496418 0 
-1.32251 -0.133823 0 
-1.37827 0.243625 0 
-0.771822 2.02161 0 
0 0 0 
0 0 0 
0 0 0 
0 0 0 
0 0 0 
0 0 0 
0 0 0 
0 0 0 
0 0 0 
0 0 0 
0 0 0 
0 0 0 
0 0 0 
0 0 0 
0 0 0 
0 0 0 
0 0 0 
0 0 0 
0 0 0 
0 0 0 
0 0 0 
0 0 0 
0 0 0 
0 0 0 
0 0 0 
0 0 0 
0 0 0 
0 0 0 
0 0 0 
0 0 0 
0 0 0 
0 0 0 
0 0 0 
0 0 0 
0 0 0 
0 0 0 
0 0 0 
0 0 0 
0 0 0 
0 0 0 
0 0 0 
0 0 0 
0 0 0 
0 0 0 
0 0 0 
0 0 0 
0 0 0 
0 0 0 
0 0 0 
0 0 0 
0 0 0 
0 0 0 
0 0 0 
0 0 0 
0 0 0 
0 0 0 
0 0 0 
0 0 0 
0 0 0 
0 0 0 
0 0 0 
0 0 0 
0 0 0 
0 0 0 
0 0 0 
0 0 0 
0 0 0 
0 0 0 
0 0 0 
0 0 0 
0 0 0 
0 0 0 
0 0 0 
0 0 0 
0 0 0 
0 0 0 
0 0 0 
0 0 0 
0 0 0 
0 0 0 
0 0 0 
0 0 0 
0 0 0 
0 0 0 
0 0 0 
0 0 0 
0 0 0 
0 0 0 
0 0 0 
0 0 0 
0 0 0 
0 0 0 
0 0 0 
0 0 0 
0 0 0 
0 0 0 
0 0 0 
0 0 0 
0 0 0 
0 0 0 
0 0 0 
0 0 0 
0 0 0 
0 0 0 
0 0 0 
0 0 0 
0 0 0 
0 0 0 
0 0 0 
0 0 0 
0 0 0 
0 0 0 
0 0 0 
0 0 0 
0 0 0 
0 0 0 
0 0 0 
0 0 0 
0 0 0 
0 0 0 
0 0 0 
0 0 0 
0 0 0 
0 0 0 
0 0 0 
0 0 0 
0 0 0 
0 0 0 
0 0 0 
0 0 0 
0 0 0 
0 0 0 
0 0 0 
0 0 0 
0 0 0 
0 0 0 
0 0 0 
0 0 0 
0 0 0 
0 0 0 
0 0 0 
0 0 0 
0 0 0 
0 0 0 
0 0 0 
0 0 0 
0 0 0 
0 0 0 
0 0 0 
0 0 0 
0 0 0 
0 0 0 
0 0 0 
0 0 0 
0 0 0 
0 0 0 
0 0 0 
0 0 0 
0 0 0 
0 0 0 
0 0 0 
0 0 0 
0 0 0 
0 0 0 
0 0 0 
0 0 0 
0 0 0 
0 0 0 
0 0 0 
0 0 0 
0 0 0 
0 0 0 
0 0 0 
0 0 0 
0 0 0 
0 0 0 
0 0 0 
0 0 0 
0 0 0 
0 0 0 
0 0 0 
0 0 0 
0 0 0 
0 0 0 
0 0 0 
0 0 0 
0 0 0 
0 0 0 
0 0 0 
0 0 0 
0 0 0 
0 0 0 
0 0 0 
0 0 0 
0 0 0 
0 0 0 
0 0 0 
0 0 0 
0 0 0 
0 0 0 
0 0 0 
0 0 0 
0 0 0 
0 0 0 
0 0 0 
0 0 0 
0 0 0 
0 0 0 
0 0 0 
0 0 0 
0 0 0 
0 0 0 
0 0 0 
0 0 0 
0 0 0 
0 0 0 
0 0 0 
0 0 0 
0 0 0 
0 0 0 
0 0 0 
0 0 0 
0 0 0 
0 0 0 
0 0 0 
0 0 0 
0 0 0 
0 0 0 
0 0 0 
0 0 0 
0 0 0 
0 0 0 
0 0 0 
0 0 0 
0 0 0 
0 0 0 
0 0 0 
0 0 0 
0 0 0 
0 0 0 
0 0 0 
0 0 0 
0 0 0 
0 0 0 
0 0 0 
0 0 0 
0 0 0 
0 0 0 
0 0 0 
0 0 0 
0 0 0 
0 0 0 
0 0 0 
0 0 0 
0 0 0 
0 0 0 
0 0 0 
0 0 0 
0 0 0 
0 0 0 
0 0 0 
0 0 0 
0 0 0 
0 0 0 
0 0 0 
0 0 0 
0 0 0 
0 0 0 
0 0 0 
0 0 0 
0 0 0 
0 0 0 
0 0 0 
0 0 0 
0 0 0 
0 0 0 
0 0 0 
0 0 0 
0 0 0 
0 0 0 
0 0 0 
0 0 0 
0 0 0 
VECTORS diff_velocity double
0 0 0 
0 0 0 
0 0 0 
0 0 0 
0 0 0 
0 0 0 
0 0 0 
0 0 0 
0 0 0 
0 0 0 
0 0 0 
0 0 0 
0 0 0 
0 0 0 
0 0 0 
0 0 0 
0 0 0 
0 0 0 
0 0 0 
0 0 0 
0 0 0 
0 0 0 
0 0 0 
0 0 0 
0 0 0 
0 0 0 
0 0 0 
0 0 0 
-1.5767 2.3979 0 
0.0156689 0.106218 0 
-0.0178497 -0.217266 0 
0 0 0 
0 0 0 
0 0 0 
0 0 0 
0 0 0 
0 0 0 
0 0 0 
0 0 0 
0 0 0 
0 0 0 
0 0 0 
0 0 0 
0 0 0 
0 0 0 
0 0 0 
0 0 0 
0 0 0 
0.75443 -0.077697 0 
0.114682 0.0334876 0 
0.0393673 -0.0334647 0 
-0.0221289 -0.030666 0 
-0.300556 -0.329608 0 
0 0 0 
0 0 0 
0 0 0 
0 0 0 
0 0 0 
0 0 0 
0 0 0 
0 0 0 
0 0 0 
0 0 0 
0 0 0 
0 0 0 
0 0 0 
0 0 0 
0 0 0 
0.424907 -0.59853 0 
0.0367386 0.0191296 0 
0.0383625 -0.00530637 0 
0.02063 0.0296394 0 
0.012819 0.0215581 0 
-0.0721695 -0.0285994 0 
-0.0243177 -0.0240469 0 
0 0 0 
0 0 0 
0 0 0 
0 0 0 
0 0 0 
0 0 0 
0 0 0 
0 0 0 
0 0 0 
0 0 0 
0 0 0 
0 0 0 
0 0 0 
0 0 0 
0.000479806 -0.0949331 0 
-0.0251983 0.011408 0 
-0.0521251 0.00860293 0 
-0.0219908 -0.0197115 0 
0.0295879 0.0239231 0 
0.0466911 -0.0143972 0 
-0.0208206 -0.0503212 0 
0 0 0 
0 0 0 
0 0 0 
0 0 0 
0 0 0 
0 0 0 
0 0 0 
0 0 0 
0 0 0 
0 0 0 
0 0 0 
0 0 0 
0 0 0 
0 0 0 
-0.030406 0.398978 0 
-0.0704694 -0.0400978 0 
0.0271573 0.0154964 0 
-0.0441038 -0.0422636 0 
0.0103846 -0.0393925 0 
-0.00569935 -0.0201755 0 
0.0574688 -0.168196 0 
0 0 0 
0 0 0 
0 0 0 
0 0 0 
0 0 0 
0 0 0 
0 0 0 
0 0 0 
0 0 0 
0 0 0 
0 0 0 
0 0 0 
0 0 0 
0 0 0 
0 0 0 
-0.112185 -0.0815522 0 
0.0240591 -0.0803311 0 
0.00948167 0.0179784 0 
-0.0276472 -0.061996 0 
-0.155016 0.110711 0 
0.789534 1.1592 0 
0 0 0 
0 0 0 
0 0 0 
0 0 0 
0 0 0 
0 0 0 
0 0 0 
0 0 0 
0 0 0 
0 0 0 
0 0 0 
0 0 0 
0 0 0 
0 0 0 
0 0 0 
0 0 0 
-0.383622 -0.367762 0 
0.102986 -0.0301122 0 
-0.107418 0.0832149 0 
0.372229 1.2667 0 
0 0 0 
0 0 0 
0 0 0 
0 0 0 
0 0 0 
0 0 0 
0 0 0 
0 0 0 
0 0 0 
0 0 0 
0 0 0 
0 0 0 
0 0 0 
0 0 0 
0 0 0 
0 0 0 
0 0 0 
0 0 0 
0 0 0 
0 0 0 
0 0 0 
0 0 0 
0 0 0 
0 0 0 
0 0 0 
0 0 0 
0 0 0 
0 0 0 
0 0 0 
0 0 0 
0 0 0 
0 0 0 
0 0 0 
0 0 0 
0 0 0 
0 0 0 
0 0 0 
0 0 0 
0 0 0 
0 0 0 
0 0 0 
0 0 0 
0 0 0 
0 0 0 
0 0 0 
0 0 0 
0 0 0 
0 0 0 
0 0 0 
0 0 0 
0 0 0 
0 0 0 
0 0 0 
0 0 0 
0 0 0 
0 0 0 
0 0 0 
0 0 0 
0 0 0 
0 0 0 
0 0 0 
0 0 0 
0 0 0 
0 0 0 
0 0 0 
0 0 0 
0 0 0 
0 0 0 
0 0 0 
0 0 0 
0 0 0 
0 0 0 
0 0 0 
0 0 0 
0 0 0 
0 0 0 
0 0 0 
0 0 0 
0 0 0 
0 0 0 
0 0 0 
0 0 0 
0 0 0 
0 0 0 
0 0 0 
0 0 0 
0 0 0 
0 0 0 
0 0 0 
0 0 0 
0 0 0 
0 0 0 
0 0 0 
0 0 0 
0 0 0 
0 0 0 
0 0 0 
0 0 0 
0 0 0 
0 0 0 
0 0 0 
0 0 0 
0 0 0 
0 0 0 
0 0 0 
0 0 0 
0 0 0 
0 0 0 
0 0 0 
0 0 0 
0 0 0 
0 0 0 
0 0 0 
0 0 0 
0 0 0 
0 0 0 
0 0 0 
0 0 0 
0 0 0 
0 0 0 
0 0 0 
0 0 0 
0 0 0 
0 0 0 
0 0 0 
0 0 0 
0 0 0 
0 0 0 
0 0 0 
0 0 0 
0 0 0 
0 0 0 
0 0 0 
0 0 0 
0 0 0 
0 0 0 
0 0 0 
0 0 0 
0 0 0 
0 0 0 
0 0 0 
0 0 0 
0 0 0 
0 0 0 
0 0 0 
0 0 0 
0 0 0 
0 0 0 
0 0 0 
0 0 0 
0 0 0 
0 0 0 
0 0 0 
0 0 0 
0 0 0 
0 0 0 
0 0 0 
0 0 0 
0 0 0 
0 0 0 
0 0 0 
0 0 0 
0 0 0 
0 0 0 
0 0 0 
0 0 0 
0 0 0 
0 0 0 
0 0 0 
0 0 0 
0 0 0 
0 0 0 
0 0 0 
0 0 0 
0 0 0 
0 0 0 
0 0 0 
0 0 0 
0 0 0 
0 0 0 
0 0 0 
0 0 0 
0 0 0 
0 0 0 
0 0 0 
0 0 0 
0 0 0 
0 0 0 
0 0 0 
0 0 0 
0 0 0 
0 0 0 
0 0 0 
0 0 0 
0 0 0 
0 0 0 
0 0 0 
0 0 0 
0 0 0 
0 0 0 
0 0 0 
0 0 0 
0 0 0 
0 0 0 
0 0 0 
0 0 0 
0 0 0 
0 0 0 
0 0 0 
0 0 0 
0 0 0 
0 0 0 
0 0 0 
0 0 0 
0 0 0 
0 0 0 
0 0 0 
0 0 0 
0 0 0 
0 0 0 
0 0 0 
0 0 0 
0 0 0 
0 0 0 
0 0 0 
0 0 0 
0 0 0 
0 0 0 
0 0 0 
0 0 0 
0 0 0 
0 0 0 
0 0 0 
0 0 0 
0 0 0 
0 0 0 
0 0 0 
0 0 0 
0 0 0 
0 0 0 
0 0 0 
0 0 0 
0 0 0 
0 0 0 
0 0 0 
0 0 0 
0 0 0 
0 0 0 
0 0 0 
0 0 0 
0 0 0 
0 0 0 
0 0 0 
0 0 0 
0 0 0 
0 0 0 
0 0 0 
0 0 0 
0 0 0 
0 0 0 
0 0 0 
0 0 0 
0 0 0 
0 0 0 
0 0 0 
0 0 0 
0 0 0 
0 0 0 
0 0 0 
0 0 0 
0 0 0 
0 0 0 
0 0 0 
0 0 0 
0 0 0 
0 0 0 
0 0 0 
0 0 0 
0 0 0 
0 0 0 
0 0 0 
0 0 0 
0 0 0 
SCALARS mass double 1
LOOKUP_TABLE default
0
0
0
0
0
0
0
0
0
0
0
0
0
0
0
0
0
0
0
0
0
0
0
0
0
0
0
0
0.00161925
0.1535
0.0644263
0
0
0
0
0
0
0
0
0
0
0
0
0
0
0
0
0
0.00193578
0.400779
1.6928
0.996513
0.0528428
0
0
0
0
0
0
0
0
0
0
0
0
0
0
0
0.00104125
0.429386
1.9744
2.61957
2.4116
1.08584
0.0637169
0
0
0
0
0
0
0
0
0
0
0
0
0
0
0.12654
1.75025
2.54549
2.51415
2.48634
2.3379
0.642539
0
0
0
0
0
0
0
0
0
0
0
0
0
0
0.0269579
0.848091
2.2363
2.43332
2.45261
1.63149
0.233647
0
0
0
0
0
0
0
0
0
0
0
0
0
0
0
0.0365014
0.859134
2.13819
1.67655
0.260508
0.00018065
0
0
0
0
0
0
0
0
0
0
0
0
0
0
0
0
0.0336778
0.541163
0.236514
0.00199602
0
0
0
0
0
0
0
0
0
0
0
0
0
0
0
0
0
0
0
0
0
0
0
0
0
0
0
0
0
0
0
0
0
0
0
0
0
0
0
0
0
0
0
0
0
0
0
0
0
0
0
0
0
0
0
0
0
0
0
0
0
0
0
0
0
0
0
0
0
0
0
0
0
0
0
0
0
0
0
0
0
0
0
0
0
0
0
0
0
0
0
0
0
0
0
0
0
0
0
0
0
0
0
0
0
0
0
0
0
0
0
0
0
0
0
0
0
0
0
0
0
0
0
0
0
0
0
0
0
0
0
0
0
0
0
0
0
0
0
0
0
0
0
0
0
0
0
0
0
0
0
0
0
0
0
0
0
0
0
0
0
0
0
0
0
0
0
0
0
0
0
0
0
0
0
0
0
0
0
0
0
0
0
0
0
0
0
0
0
0
0
0
0
0
0
0
0
0
0
0
0
0
0
0
0
0
0
0
0
0
0
0
0
0
0
0
0
0
0
0
0
0
0
0
0
0
0
0
0
0
0
0
0
0
0
0
0
0
0
0
0
0
0
0
0
0
0
0
0
0
0
0
0
0
0
0
0
0
0
0
0
0
0
0
0
0
0
0
0
0
0
0
0
0
0
0
0
0
0
0
0
0
0
VECTORS momentum double
0 0 0 
0 0 0 
0 0 0 
0 0 0 
0 0 0 
0 0 0 
0 0 0 
0 0 0 
0 0 0 
0 0 0 
0 0 0 
0 0 0 
0 0 0 
0 0 0 
0 0 0 
0 0 0 
0 0 0 
0 0 0 
0 0 0 
0 0 0 
0 0 0 
0 0 0 
0 0 0 
0 0 0 
0 0 0 
0 0 0 
0 0 0 
0 0 0 
-0.00226621 0.00287506 0 
0.0603628 -0.0015053 0 
0.0240633 -0.0166953 0 
0 0 0 
0 0 0 
0 0 0 
0 0 0 
0 0 0 
0 0 0 
0 0 0 
0 0 0 
0 0 0 
0 0 0 
0 0 0 
0 0 0 
0 0 0 
0 0 0 
0 0 0 
0 0 0 
0 0 0 
0.00133193 -0.00160354 0 
0.147412 -0.176295 0 
0.452448 -0.365099 0 
0.237772 -0.0136743 0 
0.00703984 -0.0205564 0 
0 0 0 
0 0 0 
0 0 0 
0 0 0 
0 0 0 
0 0 0 
0 0 0 
0 0 0 
0 0 0 
0 0 0 
0 0 0 
0 0 0 
0 0 0 
0 0 0 
0 0 0 
0.000256026 -0.00154342 0 
-0.0565795 -0.408914 0 
-0.141407 -1.13578 0 
0.281096 -0.383859 0 
0.382091 0.0531401 0 
0.0603076 0.294691 0 
0.00618425 0.0228823 0 
0 0 0 
0 0 0 
0 0 0 
0 0 0 
0 0 0 
0 0 0 
0 0 0 
0 0 0 
0 0 0 
0 0 0 
0 0 0 
0 0 0 
0 0 0 
0 0 0 
-0.0479891 -0.159722 0 
-0.674464 -1.4761 0 
-1.15869 -1.30019 0 
-1.12446 -0.502136 0 
-0.624831 0.173736 0 
-0.332557 0.623404 0 
-0.134536 0.310825 0 
0 0 0 
0 0 0 
0 0 0 
0 0 0 
0 0 0 
0 0 0 
0 0 0 
0 0 0 
0 0 0 
0 0 0 
0 0 0 
0 0 0 
0 0 0 
0 0 0 
-0.0115592 -0.0209336 0 
-0.735726 -0.709734 0 
-1.75489 -0.869877 0 
-1.98782 -0.50035 0 
-1.47526 -0.0305063 0 
-0.938908 0.641647 0 
-0.122312 0.101494 0 
0 0 0 
0 0 0 
0 0 0 
0 0 0 
0 0 0 
0 0 0 
0 0 0 
0 0 0 
0 0 0 
0 0 0 
0 0 0 
0 0 0 
0 0 0 
0 0 0 
0 0 0 
-0.0420665 -0.0345035 0 
-0.844404 -0.355661 0 
-2.1744 -0.31029 0 
-1.72626 0.100291 0 
-0.283171 0.0848675 0 
1.3492e-05 0.000372608 0 
0 0 0 
0 0 0 
0 0 0 
0 0 0 
0 0 0 
0 0 0 
0 0 0 
0 0 0 
0 0 0 
0 0 0 
0 0 0 
0 0 0 
0 0 0 
0 0 0 
0 0 0 
0 0 0 
-0.0438782 -0.0167183 0 
-0.715691 -0.0724202 0 
-0.325981 0.0576207 0 
-0.00154057 0.00403518 0 
0 0 0 
0 0 0 
0 0 0 
0 0 0 
0 0 0 
0 0 0 
0 0 0 
0 0 0 
0 0 0 
0 0 0 
0 0 0 
0 0 0 
0 0 0 
0 0 0 
0 0 0 
0 0 0 
0 0 0 
0 0 0 
0 0 0 
0 0 0 
0 0 0 
0 0 0 
0 0 0 
0 0 0 
0 0 0 
0 0 0 
0 0 0 
0 0 0 
0 0 0 
0 0 0 
0 0 0 
0 0 0 
0 0 0 
0 0 0 
0 0 0 
0 0 0 
0 0 0 
0 0 0 
0 0 0 
0 0 0 
0 0 0 
0 0 0 
0 0 0 
0 0 0 
0 0 0 
0 0 0 
0 0 0 
0 0 0 
0 0 0 
0 0 0 
0 0 0 
0 0 0 
0 0 0 
0 0 0 
0 0 0 
0 0 0 
0 0 0 
0 0 0 
0 0 0 
0 0 0 
0 0 0 
0 0 0 
0 0 0 
0 0 0 
0 0 0 
0 0 0 
0 0 0 
0 0 0 
0 0 0 
0 0 0 
0 0 0 
0 0 0 
0 0 0 
0 0 0 
0 0 0 
0 0 0 
0 0 0 
0 0 0 
0 0 0 
0 0 0 
0 0 0 
0 0 0 
0 0 0 
0 0 0 
0 0 0 
0 0 0 
0 0 0 
0 0 0 
0 0 0 
0 0 0 
0 0 0 
0 0 0 
0 0 0 
0 0 0 
0 0 0 
0 0 0 
0 0 0 
0 0 0 
0 0 0 
0 0 0 
0 0 0 
0 0 0 
0 0 0 
0 0 0 
0 0 0 
0 0 0 
0 0 0 
0 0 0 
0 0 0 
0 0 0 
0 0 0 
0 0 0 
0 0 0 
0 0 0 
0 0 0 
0 0 0 
0 0 0 
0 0 0 
0 0 0 
0 0 0 
0 0 0 
0 0 0 
0 0 0 
0 0 0 
0 0 0 
0 0 0 
0 0 0 
0 0 0 
0 0 0 
0 0 0 
0 0 0 
0 0 0 
0 0 0 
0 0 0 
0 0 0 
0 0 0 
0 0 0 
0 0 0 
0 0 0 
0 0 0 
0 0 0 
0 0 0 
0 0 0 
0 0 0 
0 0 0 
0 0 0 
0 0 0 
0 0 0 
0 0 0 
0 0 0 
0 0 0 
0 0 0 
0 0 0 
0 0 0 
0 0 0 
0 0 0 
0 0 0 
0 0 0 
0 0 0 
0 0 0 
0 0 0 
0 0 0 
0 0 0 
0 0 0 
0 0 0 
0 0 0 
0 0 0 
0 0 0 
0 0 0 
0 0 0 
0 0 0 
0 0 0 
0 0 0 
0 0 0 
0 0 0 
0 0 0 
0 0 0 
0 0 0 
0 0 0 
0 0 0 
0 0 0 
0 0 0 
0 0 0 
0 0 0 
0 0 0 
0 0 0 
0 0 0 
0 0 0 
0 0 0 
0 0 0 
0 0 0 
0 0 0 
0 0 0 
0 0 0 
0 0 0 
0 0 0 
0 0 0 
0 0 0 
0 0 0 
0 0 0 
0 0 0 
0 0 0 
0 0 0 
0 0 0 
0 0 0 
0 0 0 
0 0 0 
0 0 0 
0 0 0 
0 0 0 
0 0 0 
0 0 0 
0 0 0 
0 0 0 
0 0 0 
0 0 0 
0 0 0 
0 0 0 
0 0 0 
0 0 0 
0 0 0 
0 0 0 
0 0 0 
0 0 0 
0 0 0 
0 0 0 
0 0 0 
0 0 0 
0 0 0 
0 0 0 
0 0 0 
0 0 0 
0 0 0 
0 0 0 
0 0 0 
0 0 0 
0 0 0 
0 0 0 
0 0 0 
0 0 0 
0 0 0 
0 0 0 
0 0 0 
0 0 0 
0 0 0 
0 0 0 
0 0 0 
0 0 0 
0 0 0 
0 0 0 
0 0 0 
0 0 0 
0 0 0 
0 0 0 
0 0 0 
0 0 0 
0 0 0 
0 0 0 
0 0 0 
0 0 0 
0 0 0 
0 0 0 
0 0 0 
0 0 0 
0 0 0 
0 0 0 
0 0 0 
0 0 0 
0 0 0 
0 0 0 
0 0 0 
0 0 0 
0 0 0 
0 0 0 
0 0 0 
0 0 0 
0 0 0 
0 0 0 
0 0 0 
0 0 0 
0 0 0 
0 0 0 
0 0 0 
VECTORS force double
0 0 0 
0 0 0 
0 0 0 
0 0 0 
0 0 0 
0 0 0 
0 0 0 
0 0 0 
0 0 0 
0 0 0 
0 0 0 
0 0 0 
0 0 0 
0 0 0 
0 0 0 
0 0 0 
0 0 0 
0 0 0 
0 0 0 
0 0 0 
0 0 0 
0 0 0 
0 0 0 
0 0 0 
0 0 0 
0 0 0 
0 0 0 
0 0 0 
-2.55306 3.8828 0 
2.40517 16.3045 0 
-1.14999 -13.9977 0 
0 0 0 
0 0 0 
0 0 0 
0 0 0 
0 0 0 
0 0 0 
0 0 0 
0 0 0 
0 0 0 
0 0 0 
0 0 0 
0 0 0 
0 0 0 
0 0 0 
0 0 0 
0 0 0 
0 0 0 
1.46041 -0.150404 0 
45.962 13.4211 0 
66.6407 -56.6489 0 
-22.0517 -30.5591 0 
-15.8822 -17.4174 0 
0 0 0 
0 0 0 
0 0 0 
0 0 0 
0 0 0 
0 0 0 
0 0 0 
0 0 0 
0 0 0 
0 0 0 
0 0 0 
0 0 0 
0 0 0 
0 0 0 
0 0 0 
0.442433 -0.623218 0 
15.775 8.21399 0 
75.7432 -10.4769 0 
54.0418 77.6423 0 
30.9144 51.9895 0 
-78.3645 -31.0543 0 
-1.54945 -1.5322 0 
0 0 0 
0 0 0 
0 0 0 
0 0 0 
0 0 0 
0 0 0 
0 0 0 
0 0 0 
0 0 0 
0 0 0 