# vtk DataFile Version 3.0
Frame: 23, Time: 0.367
ASCII
DATASET UNSTRUCTURED_GRID
POINTS 441 double
0 0 0 
0.05 0 0 
0.1 0 0 
0.15 0 0 
0.2 0 0 
0.25 0 0 
0.3 0 0 
0.35 0 0 
0.4 0 0 
0.45 0 0 
0.5 0 0 
0.55 0 0 
0.6 0 0 
0.65 0 0 
0.7 0 0 
0.75 0 0 
0.8 0 0 
0.85 0 0 
0.9 0 0 
0.95 0 0 
1 0 0 
0 0.05 0 
0.05 0.05 0 
0.1 0.05 0 
0.15 0.05 0 
0.2 0.05 0 
0.25 0.05 0 
0.3 0.05 0 
0.35 0.05 0 
0.4 0.05 0 
0.45 0.05 0 
0.5 0.05 0 
0.55 0.05 0 
0.6 0.05 0 
0.65 0.05 0 
0.7 0.05 0 
0.75 0.05 0 
0.8 0.05 0 
0.85 0.05 0 
0.9 0.05 0 
0.95 0.05 0 
1 0.05 0 
0 0.1 0 
0.05 0.1 0 
0.1 0.1 0 
0.15 0.1 0 
0.2 0.1 0 
0.25 0.1 0 
0.3 0.1 0 
0.35 0.1 0 
0.4 0.1 0 
0.45 0.1 0 
0.5 0.1 0 
0.55 0.1 0 
0.6 0.1 0 
0.65 0.1 0 
0.7 0.1 0 
0.75 0.1 0 
0.8 0.1 0 
0.85 0.1 0 
0.9 0.1 0 
0.95 0.1 0 
1 0.1 0 
0 0.15 0 
0.05 0.15 0 
0.1 0.15 0 
0.15 0.15 0 
0.2 0.15 0 
0.25 0.15 0 
0.3 0.15 0 
0.35 0.15 0 
0.4 0.15 0 
0.45 0.15 0 
0.5 0.15 0 
0.55 0.15 0 
0.6 0.15 0 
0.65 0.15 0 
0.7 0.15 0 
0.75 0.15 0 
0.8 0.15 0 
0.85 0.15 0 
0.9 0.15 0 
0.95 0.15 0 
1 0.15 0 
0 0.2 0 
0.05 0.2 0 
0.1 0.2 0 
0.15 0.2 0 
0.2 0.2 0 
0.25 0.2 0 
0.3 0.2 0 
0.35 0.2 0 
0.4 0.2 0 
0.45 0.2 0 
0.5 0.2 0 
0.55 0.2 0 
0.6 0.2 0 
0.65 0.2 0 
0.7 0.2 0 
0.75 0.2 0 
0.8 0.2 0 
0.85 0.2 0 
0.9 0.2 0 
0.95 0.2 0 
1 0.2 0 
0 0.25 0 
0.05 0.25 0 
0.1 0.25 0 
0.15 0.25 0 
0.2 0.25 0 
0.25 0.25 0 
0.3 0.25 0 
0.35 0.25 0 
0.4 0.25 0 
0.45 0.25 0 
0.5 0.25 0 
0.55 0.25 0 
0.6 0.25 0 
0.65 0.25 0 
0.7 0.25 0 
0.75 0.25 0 
0.8 0.25 0 
0.85 0.25 0 
0.9 0.25 0 
0.95 0.25 0 
1 0.25 0 
0 0.3 0 
0.05 0.3 0 
0.1 0.3 0 
0.15 0.3 0 
0.2 0.3 0 
0.25 0.3 0 
0.3 0.3 0 
0.35 0.3 0 
0.4 0.3 0 
0.45 0.3 0 
0.5 0.3 0 
0.55 0.3 0 
0.6 0.3 0 
0.65 0.3 0 
0.7 0.3 0 
0.75 0.3 0 
0.8 0.3 0 
0.85 0.3 0 
0.9 0.3 0 
0.95 0.3 0 
1 0.3 0 
0 0.35 0 
0.05 0.35 0 
0.1 0.35 0 
0.15 0.35 0 
0.2 0.35 0 
0.25 0.35 0 
0.3 0.35 0 
0.35 0.35 0 
0.4 0.35 0 
0.45 0.35 0 
0.5 0.35 0 
0.55 0.35 0 
0.6 0.35 0 
0.65 0.35 0 
0.7 0.35 0 
0.75 0.35 0 
0.8 0.35 0 
0.85 0.35 0 
0.9 0.35 0 
0.95 0.35 0 
1 0.35 0 
0 0.4 0 
0.05 0.4 0 
0.1 0.4 0 
0.15 0.4 0 
0.2 0.4 0 
0.25 0.4 0 
0.3 0.4 0 
0.35 0.4 0 
0.4 0.4 0 
0.45 0.4 0 
0.5 0.4 0 
0.55 0.4 0 
0.6 0.4 0 
0.65 0.4 0 
0.7 0.4 0 
0.75 0.4 0 
0.8 0.4 0 
0.85 0.4 0 
0.9 0.4 0 
0.95 0.4 0 
1 0.4 0 
0 0.45 0 
0.05 0.45 0 
0.1 0.45 0 
0.15 0.45 0 
0.2 0.45 0 
0.25 0.45 0 
0.3 0.45 0 
0.35 0.45 0 
0.4 0.45 0 
0.45 0.45 0 
0.5 0.45 0 
0.55 0.45 0 
0.6 0.45 0 
0.65 0.45 0 
0.7 0.45 0 
0.75 0.45 0 
0.8 0.45 0 
0.85 0.45 0 
0.9 0.45 0 
0.95 0.45 0 
1 0.45 0 
0 0.5 0 
0.05 0.5 0 
0.1 0.5 0 
0.15 0.5 0 
0.2 0.5 0 
0.25 0.5 0 
0.3 0.5 0 
0.35 0.5 0 
0.4 0.5 0 
0.45 0.5 0 
0.5 0.5 0 
0.55 0.5 0 
0.6 0.5 0 
0.65 0.5 0 
0.7 0.5 0 
0.75 0.5 0 
0.8 0.5 0 
0.85 0.5 0 
0.9 0.5 0 
0.95 0.5 0 
1 0.5 0 
0 0.55 0 
0.05 0.55 0 
0.1 0.55 0 
0.15 0.55 0 
0.2 0.55 0 
0.25 0.55 0 
0.3 0.55 0 
0.35 0.55 0 
0.4 0.55 0 
0.45 0.55 0 
0.5 0.55 0 
0.55 0.55 0 
0.6 0.55 0 
0.65 0.55 0 
0.7 0.55 0 
0.75 0.55 0 
0.8 0.55 0 
0.85 0.55 0 
0.9 0.55 0 
0.95 0.55 0 
1 0.55 0 
0 0.6 0 
0.05 0.6 0 
0.1 0.6 0 
0.15 0.6 0 
0.2 0.6 0 
0.25 0.6 0 
0.3 0.6 0 
0.35 0.6 0 
0.4 0.6 0 
0.45 0.6 0 
0.5 0.6 0 
0.55 0.6 0 
0.6 0.6 0 
0.65 0.6 0 
0.7 0.6 0 
0.75 0.6 0 
0.8 0.6 0 
0.85 0.6 0 
0.9 0.6 0 
0.95 0.6 0 
1 0.6 0 
0 0.65 0 
0.05 0.65 0 
0.1 0.65 0 
0.15 0.65 0 
0.2 0.65 0 
0.25 0.65 0 
0.3 0.65 0 
0.35 0.65 0 
0.4 0.65 0 
0.45 0.65 0 
0.5 0.65 0 
0.55 0.65 0 
0.6 0.65 0 
0.65 0.65 0 
0.7 0.65 0 
0.75 0.65 0 
0.8 0.65 0 
0.85 0.65 0 
0.9 0.65 0 
0.95 0.65 0 
1 0.65 0 
0 0.7 0 
0.05 0.7 0 
0.1 0.7 0 
0.15 0.7 0 
0.2 0.7 0 
0.25 0.7 0 
0.3 0.7 0 
0.35 0.7 0 
0.4 0.7 0 
0.45 0.7 0 
0.5 0.7 0 
0.55 0.7 0 
0.6 0.7 0 
0.65 0.7 0 
0.7 0.7 0 
0.75 0.7 0 
0.8 0.7 0 
0.85 0.7 0 
0.9 0.7 0 
0.95 0.7 0 
1 0.7 0 
0 0.75 0 
0.05 0.75 0 
0.1 0.75 0 
0.15 0.75 0 
0.2 0.75 0 
0.25 0.75 0 
0.3 0.75 0 
0.35 0.75 0 
0.4 0.75 0 
0.45 0.75 0 
0.5 0.75 0 
0.55 0.75 0 
0.6 0.75 0 
0.65 0.75 0 
0.7 0.75 0 
0.75 0.75 0 
0.8 0.75 0 
0.85 0.75 0 
0.9 0.75 0 
0.95 0.75 0 
1 0.75 0 
0 0.8 0 
0.05 0.8 0 
0.1 0.8 0 
0.15 0.8 0 
0.2 0.8 0 
0.25 0.8 0 
0.3 0.8 0 
0.35 0.8 0 
0.4 0.8 0 
0.45 0.8 0 
0.5 0.8 0 
0.55 0.8 0 
0.6 0.8 0 
0.65 0.8 0 
0.7 0.8 0 
0.75 0.8 0 
0.8 0.8 0 
0.85 0.8 0 
0.9 0.8 0 
0.95 0.8 0 
1 0.8 0 
0 0.85 0 
0.05 0.85 0 
0.1 0.85 0 
0.15 0.85 0 
0.2 0.85 0 
0.25 0.85 0 
0.3 0.85 0 
0.35 0.85 0 
0.4 0.85 0 
0.45 0.85 0 
0.5 0.85 0 
0.55 0.85 0 
0.6 0.85 0 
0.65 0.85 0 
0.7 0.85 0 
0.75 0.85 0 
0.8 0.85 0 
0.85 0.85 0 
0.9 0.85 0 
0.95 0.85 0 
1 0.85 0 
0 0.9 0 
0.05 0.9 0 
0.1 0.9 0 
0.15 0.9 0 
0.2 0.9 0 
0.25 0.9 0 
0.3 0.9 0 
0.35 0.9 0 
0.4 0.9 0 
0.45 0.9 0 
0.5 0.9 0 
0.55 0.9 0 
0.6 0.9 0 
0.65 0.9 0 
0.7 0.9 0 
0.75 0.9 0 
0.8 0.9 0 
0.85 0.9 0 
0.9 0.9 0 
0.95 0.9 0 
1 0.9 0 
0 0.95 0 
0.05 0.95 0 
0.1 0.95 0 
0.15 0.95 0 
0.2 0.95 0 
0.25 0.95 0 
0.3 0.95 0 
0.35 0.95 0 
0.4 0.95 0 
0.45 0.95 0 
0.5 0.95 0 
0.55 0.95 0 
0.6 0.95 0 
0.65 0.95 0 
0.7 0.95 0 
0.75 0.95 0 
0.8 0.95 0 
0.85 0.95 0 
0.9 0.95 0 
0.95 0.95 0 
1 0.95 0 
0 1 0 
0.05 1 0 
0.1 1 0 
0.15 1 0 
0.2 1 0 
0.25 1 0 
0.3 1 0 
0.35 1 0 
0.4 1 0 
0.45 1 0 
0.5 1 0 
0.55 1 0 
0.6 1 0 
0.65 1 0 
0.7 1 0 
0.75 1 0 
0.8 1 0 
0.85 1 0 
0.9 1 0 
0.95 1 0 
1 1 0 
CELLS 400 2000
4 0 1 21 22
4 1 2 22 23
4 2 3 23 24
4 3 4 24 25
4 4 5 25 26
4 5 6 26 27
4 6 7 27 28
4 7 8 28 29
4 8 9 29 30
4 9 10 30 31
4 10 11 31 32
4 11 12 32 33
4 12 13 33 34
4 13 14 34 35
4 14 15 35 36
4 15 16 36 37
4 16 17 37 38
4 17 18 38 39
4 18 19 39 40
4 19 20 40 41
4 21 22 42 43
4 22 23 43 44
4 23 24 44 45
4 24 25 45 46
4 25 26 46 47
4 26 27 47 48
4 27 28 48 49
4 28 29 49 50
4 29 30 50 51
4 30 31 51 52
4 31 32 52 53
4 32 33 53 54
4 33 34 54 55
4 34 35 55 56
4 35 36 56 57
4 36 37 57 58
4 37 38 58 59
4 38 39 59 60
4 39 40 60 61
4 40 41 61 62
4 42 43 63 64
4 43 44 64 65
4 44 45 65 66
4 45 46 66 67
4 46 47 67 68
4 47 48 68 69
4 48 49 69 70
4 49 50 70 71
4 50 51 71 72
4 51 52 72 73
4 52 53 73 74
4 53 54 74 75
4 54 55 75 76
4 55 56 76 77
4 56 57 77 78
4 57 58 78 79
4 58 59 79 80
4 59 60 80 81
4 60 61 81 82
4 61 62 82 83
4 63 64 84 85
4 64 65 85 86
4 65 66 86 87
4 66 67 87 88
4 67 68 88 89
4 68 69 89 90
4 69 70 90 91
4 70 71 91 92
4 71 72 92 93
4 72 73 93 94
4 73 74 94 95
4 74 75 95 96
4 75 76 96 97
4 76 77 97 98
4 77 78 98 99
4 78 79 99 100
4 79 80 100 101
4 80 81 101 102
4 81 82 102 103
4 82 83 103 104
4 84 85 105 106
4 85 86 106 107
4 86 87 107 108
4 87 88 108 109
4 88 89 109 110
4 89 90 110 111
4 90 91 111 112
4 91 92 112 113
4 92 93 113 114
4 93 94 114 115
4 94 95 115 116
4 95 96 116 117
4 96 97 117 118
4 97 98 118 119
4 98 99 119 120
4 99 100 120 121
4 100 101 121 122
4 101 102 122 123
4 102 103 123 124
4 103 104 124 125
4 105 106 126 127
4 106 107 127 128
4 107 108 128 129
4 108 109 129 130
4 109 110 130 131
4 110 111 131 132
4 111 112 132 133
4 112 113 133 134
4 113 114 134 135
4 114 115 135 136
4 115 116 136 137
4 116 117 137 138
4 117 118 138 139
4 118 119 139 140
4 119 120 140 141
4 120 121 141 142
4 121 122 142 143
4 122 123 143 144
4 123 124 144 145
4 124 125 145 146
4 126 127 147 148
4 127 128 148 149
4 128 129 149 150
4 129 130 150 151
4 130 131 151 152
4 131 132 152 153
4 132 133 153 154
4 133 134 154 155
4 134 135 155 156
4 135 136 156 157
4 136 137 157 158
4 137 138 158 159
4 138 139 159 160
4 139 140 160 161
4 140 141 161 162
4 141 142 162 163
4 142 143 163 164
4 143 144 164 165
4 144 145 165 166
4 145 146 166 167
4 147 148 168 169
4 148 149 169 170
4 149 150 170 171
4 150 151 171 172
4 151 152 172 173
4 152 153 173 174
4 153 154 174 175
4 154 155 175 176
4 155 156 176 177
4 156 157 177 178
4 157 158 178 179
4 158 159 179 180
4 159 160 180 181
4 160 161 181 182
4 161 162 182 183
4 162 163 183 184
4 163 164 184 185
4 164 165 185 186
4 165 166 186 187
4 166 167 187 188
4 168 169 189 190
4 169 170 190 191
4 170 171 191 192
4 171 172 192 193
4 172 173 193 194
4 173 174 194 195
4 174 175 195 196
4 175 176 196 197
4 176 177 197 198
4 177 178 198 199
4 178 179 199 200
4 179 180 200 201
4 180 181 201 202
4 181 182 202 203
4 182 183 203 204
4 183 184 204 205
4 184 185 205 206
4 185 186 206 207
4 186 187 207 208
4 187 188 208 209
4 189 190 210 211
4 190 191 211 212
4 191 192 212 213
4 192 193 213 214
4 193 194 214 215
4 194 195 215 216
4 195 196 216 217
4 196 197 217 218
4 197 198 218 219
4 198 199 219 220
4 199 200 220 221
4 200 201 221 222
4 201 202 222 223
4 202 203 223 224
4 203 204 224 225
4 204 205 225 226
4 205 206 226 227
4 206 207 227 228
4 207 208 228 229
4 208 209 229 230
4 210 211 231 232
4 211 212 232 233
4 212 213 233 234
4 213 214 234 235
4 214 215 235 236
4 215 216 236 237
4 216 217 237 238
4 217 218 238 239
4 218 219 239 240
4 219 220 240 241
4 220 221 241 242
4 221 222 242 243
4 222 223 243 244
4 223 224 244 245
4 224 225 245 246
4 225 226 246 247
4 226 227 247 248
4 227 228 248 249
4 228 229 249 250
4 229 230 250 251
4 231 232 252 253
4 232 233 253 254
4 233 234 254 255
4 234 235 255 256
4 235 236 256 257
4 236 237 257 258
4 237 238 258 259
4 238 239 259 260
4 239 240 260 261
4 240 241 261 262
4 241 242 262 263
4 242 243 263 264
4 243 244 264 265
4 244 245 265 266
4 245 246 266 267
4 246 247 267 268
4 247 248 268 269
4 248 249 269 270
4 249 250 270 271
4 250 251 271 272
4 252 253 273 274
4 253 254 274 275
4 254 255 275 276
4 255 256 276 277
4 256 257 277 278
4 257 258 278 279
4 258 259 279 280
4 259 260 280 281
4 260 261 281 282
4 261 262 282 283
4 262 263 283 284
4 263 264 284 285
4 264 265 285 286
4 265 266 286 287
4 266 267 287 288
4 267 268 288 289
4 268 269 289 290
4 269 270 290 291
4 270 271 291 292
4 271 272 292 293
4 273 274 294 295
4 274 275 295 296
4 275 276 296 297
4 276 277 297 298
4 277 278 298 299
4 278 279 299 300
4 279 280 300 301
4 280 281 301 302
4 281 282 302 303
4 282 283 303 304
4 283 284 304 305
4 284 285 305 306
4 285 286 306 307
4 286 287 307 308
4 287 288 308 309
4 288 289 309 310
4 289 290 310 311
4 290 291 311 312
4 291 292 312 313
4 292 293 313 314
4 294 295 315 316
4 295 296 316 317
4 296 297 317 318
4 297 298 318 319
4 298 299 319 320
4 299 300 320 321
4 300 301 321 322
4 301 302 322 323
4 302 303 323 324
4 303 304 324 325
4 304 305 325 326
4 305 306 326 327
4 306 307 327 328
4 307 308 328 329
4 308 309 329 330
4 309 310 330 331
4 310 311 331 332
4 311 312 332 333
4 312 313 333 334
4 313 314 334 335
4 315 316 336 337
4 316 317 337 338
4 317 318 338 339
4 318 319 339 340
4 319 320 340 341
4 320 321 341 342
4 321 322 342 343
4 322 323 343 344
4 323 324 344 345
4 324 325 345 346
4 325 326 346 347
4 326 327 347 348
4 327 328 348 349
4 328 329 349 350
4 329 330 350 351
4 330 331 351 352
4 331 332 352 353
4 332 333 353 354
4 333 334 354 355
4 334 335 355 356
4 336 337 357 358
4 337 338 358 359
4 338 339 359 360
4 339 340 360 361
4 340 341 361 362
4 341 342 362 363
4 342 343 363 364
4 343 344 364 365
4 344 345 365 366
4 345 346 366 367
4 346 347 367 368
4 347 348 368 369
4 348 349 369 370
4 349 350 370 371
4 350 351 371 372
4 351 352 372 373
4 352 353 373 374
4 353 354 374 375
4 354 355 375 376
4 355 356 376 377
4 357 358 378 379
4 358 359 379 380
4 359 360 380 381
4 360 361 381 382
4 361 362 382 383
4 362 363 383 384
4 363 364 384 385
4 364 365 385 386
4 365 366 386 387
4 366 367 387 388
4 367 368 388 389
4 368 369 389 390
4 369 370 390 391
4 370 371 391 392
4 371 372 392 393
4 372 373 393 394
4 373 374 394 395
4 374 375 395 396
4 375 376 396 397
4 376 377 397 398
4 378 379 399 400
4 379 380 400 401
4 380 381 401 402
4 381 382 402 403
4 382 383 403 404
4 383 384 404 405
4 384 385 405 406
4 385 386 406 407
4 386 387 407 408
4 387 388 408 409
4 388 389 409 410
4 389 390 410 411
4 390 391 411 412
4 391 392 412 413
4 392 393 413 414
4 393 394 414 415
4 394 395 415 416
4 395 396 416 417
4 396 397 417 418
4 397 398 418 419
4 399 400 420 421
4 400 401 421 422
4 401 402 422 423
4 402 403 423 424
4 403 404 424 425
4 404 405 425 426
4 405 406 426 427
4 406 407 427 428
4 407 408 428 429
4 408 409 429 430
4 409 410 430 431
4 410 411 431 432
4 411 412 432 433
4 412 413 433 434
4 413 414 434 435
4 414 415 435 436
4 415 416 436 437
4 416 417 437 438
4 417 418 438 439
4 418 419 439 440
CELL_TYPES 400
8
8
8
8
8
8
8
8
8
8
8
8
8
8
8
8
8
8
8
8
8
8
8
8
8
8
8
8
8
8
8
8
8
8
8
8
8
8
8
8
8
8
8
8
8
8
8
8
8
8
8
8
8
8
8
8
8
8
8
8
8
8
8
8
8
8
8
8
8
8
8
8
8
8
8
8
8
8
8
8
8
8
8
8
8
8
8
8
8
8
8
8
8
8
8
8
8
8
8
8
8
8
8
8
8
8
8
8
8
8
8
8
8
8
8
8
8
8
8
8
8
8
8
8
8
8
8
8
8
8
8
8
8
8
8
8
8
8
8
8
8
8
8
8
8
8
8
8
8
8
8
8
8
8
8
8
8
8
8
8
8
8
8
8
8
8
8
8
8
8
8
8
8
8
8
8
8
8
8
8
8
8
8
8
8
8
8
8
8
8
8
8
8
8
8
8
8
8
8
8
8
8
8
8
8
8
8
8
8
8
8
8
8
8
8
8
8
8
8
8
8
8
8
8
8
8
8
8
8
8
8
8
8
8
8
8
8
8
8
8
8
8
8
8
8
8
8
8
8
8
8
8
8
8
8
8
8
8
8
8
8
8
8
8
8
8
8
8
8
8
8
8
8
8
8
8
8
8
8
8
8
8
8
8
8
8
8
8
8
8
8
8
8
8
8
8
8
8
8
8
8
8
8
8
8
8
8
8
8
8
8
8
8
8
8
8
8
8
8
8
8
8
8
8
8
8
8
8
8
8
8
8
8
8
8
8
8
8
8
8
8
8
8
8
8
8
8
8
8
8
8
8
8
8
8
8
8
8
8
8
8
8
8
8
8
8
8
8
8
8
8
8
8
8
8
8
8
8
8
8
8
8
8
8
8
8
8
8
8
8
8
8
8
8
8
8
8
8
8
8
POINT_DATA 441
VECTORS displacement double
0 0 0 
0 0 0 
0 0 0 
0 0 0 
0 0 0 
0 0 0 
0 0 0 
0 0 0 
0 0 0 
0 0 0 
0 0 0 
0 0 0 
0 0 0 
0 0 0 
0 0 0 
0 0 0 
0 0 0 
0 0 0 
0 0 0 
0 0 0 
0 0 0 
0 0 0 
0 0 0 
0 0 0 
0 0 0 
0 0 0 
0 0 0 
0 0 0 
0.000105273 0.000633896 0 
-3.763e-05 0.000608016 0 
-0.000597742 0.000477902 0 
-0.000975817 0.000730959 0 
-0.00116265 0.000931698 0 
-0.00146254 0.00193815 0 
0 0 0 
0 0 0 
0 0 0 
0 0 0 
0 0 0 
0 0 0 
0 0 0 
0 0 0 
0 0 0 
0 0 0 
0 0 0 
0 0 0 
0 0 0 
0 0 0 
0 0 0 
0.000310759 0.000278742 0 
0.000374171 0.000518775 0 
0.000292797 0.000897582 0 
2.49186e-05 0.00122009 0 
-9.44341e-05 0.00110045 0 
-4.25508e-05 0.000876727 0 
0 0 0 
0 0 0 
0 0 0 
0 0 0 
0 0 0 
0 0 0 
0 0 0 
0 0 0 
0 0 0 
0 0 0 
0 0 0 
0 0 0 
0 0 0 
0 0 0 
0 0 0 
-0.000340534 -9.1797e-05 0 
-0.000242513 0.000520265 0 
-0.00028691 0.00144777 0 
0.000156899 0.00183044 0 
0.000199997 0.00222154 0 
-0.000321814 0.00272312 0 
0 0 0 
0 0 0 
0 0 0 
0 0 0 
0 0 0 
0 0 0 
0 0 0 
0 0 0 
0 0 0 
0 0 0 
0 0 0 
0 0 0 
0 0 0 
0 0 0 
0 0 0 
-0.00113768 -0.000127272 0 
-0.000951227 0.000587412 0 
-0.000597193 0.00141688 0 
-0.00040686 0.0017084 0 
-0.000726788 0.00229634 0 
-0.00117273 0.00247293 0 
0 0 0 
0 0 0 
0 0 0 
0 0 0 
0 0 0 
0 0 0 
0 0 0 
0 0 0 
0 0 0 
0 0 0 
0 0 0 
0 0 0 
0 0 0 
0 0 0 
0 0 0 
-0.00155638 0.00012496 0 
-0.0018398 0.000653973 0 
-0.00200109 0.000840373 0 
-0.00164842 0.00166545 0 
-0.00169584 0.00296787 0 
-0.000548224 0.00422401 0 
0 0 0 
0 0 0 
0 0 0 
0 0 0 
0 0 0 
0 0 0 
0 0 0 
0 0 0 
0 0 0 
0 0 0 
0 0 0 
0 0 0 
0 0 0 
0 0 0 
0 0 0 
0 0 0 
0 0 0 
0 0 0 
0 0 0 
0 0 0 
0 0 0 
0 0 0 
0 0 0 
0 0 0 
0 0 0 
0 0 0 
0 0 0 
0 0 0 
0 0 0 
0 0 0 
0 0 0 
0 0 0 
0 0 0 
0 0 0 
0 0 0 
0 0 0 
0 0 0 
0 0 0 
0 0 0 
0 0 0 
0 0 0 
0 0 0 
0 0 0 
0 0 0 
0 0 0 
0 0 0 
0 0 0 
0 0 0 
0 0 0 
0 0 0 
0 0 0 
0 0 0 
0 0 0 
0 0 0 
0 0 0 
0 0 0 
0 0 0 
0 0 0 
0 0 0 
0 0 0 
0 0 0 
0 0 0 
0 0 0 
0 0 0 
0 0 0 
0 0 0 
0 0 0 
0 0 0 
0 0 0 
0 0 0 
0 0 0 
0 0 0 
0 0 0 
0 0 0 
0 0 0 
0 0 0 
0 0 0 
0 0 0 
0 0 0 
0 0 0 
0 0 0 
0 0 0 
0 0 0 
0 0 0 
0 0 0 
0 0 0 
0 0 0 
0 0 0 
0 0 0 
0 0 0 
0 0 0 
0 0 0 
0 0 0 
0 0 0 
0 0 0 
0 0 0 
0 0 0 
0 0 0 
0 0 0 
0 0 0 
0 0 0 
0 0 0 
0 0 0 
0 0 0 
0 0 0 
0 0 0 
0 0 0 
0 0 0 
0 0 0 
0 0 0 
0 0 0 
0 0 0 
0 0 0 
0 0 0 
0 0 0 
0 0 0 
0 0 0 
0 0 0 
0 0 0 
0 0 0 
0 0 0 
0 0 0 
0 0 0 
0 0 0 
0 0 0 
0 0 0 
0 0 0 
0 0 0 
0 0 0 
0 0 0 
0 0 0 
0 0 0 
0 0 0 
0 0 0 
0 0 0 
0 0 0 
0 0 0 
0 0 0 
0 0 0 
0 0 0 
0 0 0 
0 0 0 
0 0 0 
0 0 0 
0 0 0 
0 0 0 
0 0 0 
0 0 0 
0 0 0 
0 0 0 
0 0 0 
0 0 0 
0 0 0 
0 0 0 
0 0 0 
0 0 0 
0 0 0 
0 0 0 
0 0 0 
0 0 0 
0 0 0 
0 0 0 
0 0 0 
0 0 0 
0 0 0 
0 0 0 
0 0 0 
0 0 0 
0 0 0 
0 0 0 
0 0 0 
0 0 0 
0 0 0 
0 0 0 
0 0 0 
0 0 0 
0 0 0 
0 0 0 
0 0 0 
0 0 0 
0 0 0 
0 0 0 
0 0 0 
0 0 0 
0 0 0 
0 0 0 
0 0 0 
0 0 0 
0 0 0 
0 0 0 
0 0 0 
0 0 0 
0 0 0 
0 0 0 
0 0 0 
0 0 0 
0 0 0 
0 0 0 
0 0 0 
0 0 0 
0 0 0 
0 0 0 
0 0 0 
0 0 0 
0 0 0 
0 0 0 
0 0 0 
0 0 0 
0 0 0 
0 0 0 
0 0 0 
0 0 0 
0 0 0 
0 0 0 
0 0 0 
0 0 0 
0 0 0 
0 0 0 
0 0 0 
0 0 0 
0 0 0 
0 0 0 
0 0 0 
0 0 0 
0 0 0 
0 0 0 
0 0 0 
0 0 0 
0 0 0 
0 0 0 
0 0 0 
0 0 0 
0 0 0 
0 0 0 
0 0 0 
0 0 0 
0 0 0 
0 0 0 
0 0 0 
0 0 0 
0 0 0 
0 0 0 
0 0 0 
0 0 0 
0 0 0 
0 0 0 
0 0 0 
0 0 0 
0 0 0 
0 0 0 
0 0 0 
0 0 0 
0 0 0 
0 0 0 
0 0 0 
0 0 0 
0 0 0 
0 0 0 
0 0 0 
0 0 0 
0 0 0 
0 0 0 
0 0 0 
0 0 0 
0 0 0 
0 0 0 
0 0 0 
0 0 0 
0 0 0 
0 0 0 
0 0 0 
0 0 0 
0 0 0 
0 0 0 
0 0 0 
0 0 0 
0 0 0 
0 0 0 
0 0 0 
0 0 0 
0 0 0 
0 0 0 
0 0 0 
0 0 0 
0 0 0 
0 0 0 
0 0 0 
0 0 0 
0 0 0 
0 0 0 
0 0 0 
0 0 0 
0 0 0 
0 0 0 
0 0 0 
0 0 0 
0 0 0 
0 0 0 
0 0 0 
0 0 0 
0 0 0 
0 0 0 
0 0 0 
0 0 0 
0 0 0 
0 0 0 
0 0 0 
0 0 0 
0 0 0 
0 0 0 
0 0 0 
0 0 0 
0 0 0 
0 0 0 
0 0 0 
0 0 0 
0 0 0 
0 0 0 
0 0 0 
0 0 0 
0 0 0 
0 0 0 
0 0 0 
VECTORS velocity double
0 0 0 
0 0 0 
0 0 0 
0 0 0 
0 0 0 
0 0 0 
0 0 0 
0 0 0 
0 0 0 
0 0 0 
0 0 0 
0 0 0 
0 0 0 
0 0 0 
0 0 0 
0 0 0 
0 0 0 
0 0 0 
0 0 0 
0 0 0 
0 0 0 
0 0 0 
0 0 0 
0 0 0 
0 0 0 
0 0 0 
0 0 0 
0 0 0 
0.105273 0.633896 0 
-0.03763 0.608016 0 
-0.597742 0.477902 0 
-0.975817 0.730959 0 
-1.16265 0.931698 0 
-1.46254 1.93815 0 
0 0 0 
0 0 0 
0 0 0 
0 0 0 
0 0 0 
0 0 0 
0 0 0 
0 0 0 
0 0 0 
0 0 0 
0 0 0 
0 0 0 
0 0 0 
0 0 0 
0 0 0 
0.310759 0.278742 0 
0.374171 0.518775 0 
0.292797 0.897582 0 
0.0249186 1.22009 0 
-0.0944341 1.10045 0 
-0.0425508 0.876727 0 
0 0 0 
0 0 0 
0 0 0 
0 0 0 
0 0 0 
0 0 0 
0 0 0 
0 0 0 
0 0 0 
0 0 0 
0 0 0 
0 0 0 
0 0 0 
0 0 0 
0 0 0 
-0.340534 -0.091797 0 
-0.242513 0.520265 0 
-0.28691 1.44777 0 
0.156899 1.83044 0 
0.199997 2.22154 0 
-0.321814 2.72312 0 
0 0 0 
0 0 0 
0 0 0 
0 0 0 
0 0 0 
0 0 0 
0 0 0 
0 0 0 
0 0 0 
0 0 0 
0 0 0 
0 0 0 
0 0 0 
0 0 0 
0 0 0 
-1.13768 -0.127272 0 
-0.951227 0.587412 0 
-0.597193 1.41688 0 
-0.40686 1.7084 0 
-0.726788 2.29634 0 
-1.17273 2.47293 0 
0 0 0 
0 0 0 
0 0 0 
0 0 0 
0 0 0 
0 0 0 
0 0 0 
0 0 0 
0 0 0 
0 0 0 
0 0 0 
0 0 0 
0 0 0 
0 0 0 
0 0 0 
-1.55638 0.12496 0 
-1.8398 0.653973 0 
-2.00109 0.840373 0 
-1.64842 1.66545 0 
-1.69584 2.96787 0 
-0.548224 4.22401 0 
0 0 0 
0 0 0 
0 0 0 
0 0 0 
0 0 0 
0 0 0 
0 0 0 
0 0 0 
0 0 0 
0 0 0 
0 0 0 
0 0 0 
0 0 0 
0 0 0 
0 0 0 
0 0 0 
0 0 0 
0 0 0 
0 0 0 
0 0 0 
0 0 0 
0 0 0 
0 0 0 
0 0 0 
0 0 0 
0 0 0 
0 0 0 
0 0 0 
0 0 0 
0 0 0 
0 0 0 
0 0 0 
0 0 0 
0 0 0 
0 0 0 
0 0 0 
0 0 0 
0 0 0 
0 0 0 
0 0 0 
0 0 0 
0 0 0 
0 0 0 
0 0 0 
0 0 0 
0 0 0 
0 0 0 
0 0 0 
0 0 0 
0 0 0 
0 0 0 
0 0 0 
0 0 0 
0 0 0 
0 0 0 
0 0 0 
0 0 0 
0 0 0 
0 0 0 
0 0 0 
0 0 0 
0 0 0 
0 0 0 
0 0 0 
0 0 0 
0 0 0 
0 0 0 
0 0 0 
0 0 0 
0 0 0 
0 0 0 
0 0 0 
0 0 0 
0 0 0 
0 0 0 
0 0 0 
0 0 0 
0 0 0 
0 0 0 
0 0 0 
0 0 0 
0 0 0 
0 0 0 
0 0 0 
0 0 0 
0 0 0 
0 0 0 
0 0 0 
0 0 0 
0 0 0 
0 0 0 
0 0 0 
0 0 0 
0 0 0 
0 0 0 
0 0 0 
0 0 0 
0 0 0 
0 0 0 
0 0 0 
0 0 0 
0 0 0 
0 0 0 
0 0 0 
0 0 0 
0 0 0 
0 0 0 
0 0 0 
0 0 0 
0 0 0 
0 0 0 
0 0 0 
0 0 0 
0 0 0 
0 0 0 
0 0 0 
0 0 0 
0 0 0 
0 0 0 
0 0 0 
0 0 0 
0 0 0 
0 0 0 
0 0 0 
0 0 0 
0 0 0 
0 0 0 
0 0 0 
0 0 0 
0 0 0 
0 0 0 
0 0 0 
0 0 0 
0 0 0 
0 0 0 
0 0 0 
0 0 0 
0 0 0 
0 0 0 
0 0 0 
0 0 0 
0 0 0 
0 0 0 
0 0 0 
0 0 0 
0 0 0 
0 0 0 
0 0 0 
0 0 0 
0 0 0 
0 0 0 
0 0 0 
0 0 0 
0 0 0 
0 0 0 
0 0 0 
0 0 0 
0 0 0 
0 0 0 
0 0 0 
0 0 0 
0 0 0 
0 0 0 
0 0 0 
0 0 0 
0 0 0 
0 0 0 
0 0 0 
0 0 0 
0 0 0 
0 0 0 
0 0 0 
0 0 0 
0 0 0 
0 0 0 
0 0 0 
0 0 0 
0 0 0 
0 0 0 
0 0 0 
0 0 0 
0 0 0 
0 0 0 
0 0 0 
0 0 0 
0 0 0 
0 0 0 
0 0 0 
0 0 0 
0 0 0 
0 0 0 
0 0 0 
0 0 0 
0 0 0 
0 0 0 
0 0 0 
0 0 0 
0 0 0 
0 0 0 
0 0 0 
0 0 0 
0 0 0 
0 0 0 
0 0 0 
0 0 0 
0 0 0 
0 0 0 
0 0 0 
0 0 0 
0 0 0 
0 0 0 
0 0 0 
0 0 0 
0 0 0 
0 0 0 
0 0 0 
0 0 0 
0 0 0 
0 0 0 
0 0 0 
0 0 0 
0 0 0 
0 0 0 
0 0 0 
0 0 0 
0 0 0 
0 0 0 
0 0 0 
0 0 0 
0 0 0 
0 0 0 
0 0 0 
0 0 0 
0 0 0 
0 0 0 
0 0 0 
0 0 0 
0 0 0 
0 0 0 
0 0 0 
0 0 0 
0 0 0 
0 0 0 
0 0 0 
0 0 0 
0 0 0 
0 0 0 
0 0 0 
0 0 0 
0 0 0 
0 0 0 
0 0 0 
0 0 0 
0 0 0 
0 0 0 
0 0 0 
0 0 0 
0 0 0 
0 0 0 
0 0 0 
0 0 0 
0 0 0 
0 0 0 
0 0 0 
0 0 0 
0 0 0 
0 0 0 
0 0 0 
0 0 0 
0 0 0 
0 0 0 
0 0 0 
0 0 0 
0 0 0 
0 0 0 
0 0 0 
0 0 0 
0 0 0 
0 0 0 
0 0 0 
0 0 0 
0 0 0 
0 0 0 
0 0 0 
0 0 0 
0 0 0 
0 0 0 
0 0 0 
0 0 0 
0 0 0 
0 0 0 
0 0 0 
0 0 0 
0 0 0 
0 0 0 
0 0 0 
0 0 0 
0 0 0 
0 0 0 
0 0 0 
0 0 0 
0 0 0 
0 0 0 
0 0 0 
0 0 0 
0 0 0 
0 0 0 
0 0 0 
0 0 0 
0 0 0 
0 0 0 
0 0 0 
0 0 0 
0 0 0 
0 0 0 
0 0 0 
0 0 0 
0 0 0 
0 0 0 
0 0 0 
0 0 0 
0 0 0 
0 0 0 
VECTORS diff_velocity double
0 0 0 
0 0 0 
0 0 0 
0 0 0 
0 0 0 
0 0 0 
0 0 0 
0 0 0 
0 0 0 
0 0 0 
0 0 0 
0 0 0 
0 0 0 
0 0 0 
0 0 0 
0 0 0 
0 0 0 
0 0 0 
0 0 0 
0 0 0 
0 0 0 
0 0 0 
0 0 0 
0 0 0 
0 0 0 
0 0 0 
0 0 0 
0 0 0 
-0.172163 0.158836 0 
-0.0668209 0.0840793 0 
-0.109133 0.0336318 0 
-0.129342 0.0511474 0 
-0.00814807 0.0513645 0 
0.0301126 0.666817 0 
0 0 0 
0 0 0 
0 0 0 
0 0 0 
0 0 0 
0 0 0 
0 0 0 
0 0 0 
0 0 0 
0 0 0 
0 0 0 
0 0 0 
0 0 0 
0 0 0 
0 0 0 
-0.0746965 -0.211084 0 
0.0770256 0.0129638 0 
0.122511 -0.0413943 0 
0.153837 -0.126476 0 
0.200196 -0.0957446 0 
-0.449386 -0.483196 0 
0 0 0 
0 0 0 
0 0 0 
0 0 0 
0 0 0 
0 0 0 
0 0 0 
0 0 0 
0 0 0 
0 0 0 
0 0 0 
0 0 0 
0 0 0 
0 0 0 
0 0 0 
0.0537672 -0.241657 0 
0.0738226 -0.00476197 0 
-0.0560243 0.0611346 0 
-0.115501 -0.0424222 0 
-0.0042693 0.216062 0 
-0.224934 0.679343 0 
0 0 0 
0 0 0 
0 0 0 
0 0 0 
0 0 0 
0 0 0 
0 0 0 
0 0 0 
0 0 0 
0 0 0 
0 0 0 
0 0 0 
0 0 0 
0 0 0 
0 0 0 
-0.123074 -0.25138 0 
-0.0412594 -0.00445147 0 
0.0325184 0.0242963 0 
0.103691 0.0149914 0 
0.0600372 -0.189006 0 
-0.398366 -0.00883229 0 
0 0 0 
0 0 0 
0 0 0 
0 0 0 
0 0 0 
0 0 0 
0 0 0 
0 0 0 
0 0 0 
0 0 0 
0 0 0 
0 0 0 
0 0 0 
0 0 0 
0 0 0 
0.0328745 -0.353872 0 
0.0800524 0.103651 0 
0.0341804 -0.0777319 0 
-0.151751 0.00192344 0 
-0.515902 0.0653536 0 
-0.0130888 1.56311 0 
0 0 0 
0 0 0 
0 0 0 
0 0 0 
0 0 0 
0 0 0 
0 0 0 
0 0 0 
0 0 0 
0 0 0 
0 0 0 
0 0 0 
0 0 0 
0 0 0 
0 0 0 
0 0 0 
0 0 0 
0 0 0 
0 0 0 
0 0 0 
0 0 0 
0 0 0 
0 0 0 
0 0 0 
0 0 0 
0 0 0 
0 0 0 
0 0 0 
0 0 0 
0 0 0 
0 0 0 
0 0 0 
0 0 0 
0 0 0 
0 0 0 
0 0 0 
0 0 0 
0 0 0 
0 0 0 
0 0 0 
0 0 0 
0 0 0 
0 0 0 
0 0 0 
0 0 0 
0 0 0 
0 0 0 
0 0 0 
0 0 0 
0 0 0 
0 0 0 
0 0 0 
0 0 0 
0 0 0 
0 0 0 
0 0 0 
0 0 0 
0 0 0 
0 0 0 
0 0 0 
0 0 0 
0 0 0 
0 0 0 
0 0 0 
0 0 0 
0 0 0 
0 0 0 
0 0 0 
0 0 0 
0 0 0 
0 0 0 
0 0 0 
0 0 0 
0 0 0 
0 0 0 
0 0 0 
0 0 0 
0 0 0 
0 0 0 
0 0 0 
0 0 0 
0 0 0 
0 0 0 
0 0 0 
0 0 0 
0 0 0 
0 0 0 
0 0 0 
0 0 0 
0 0 0 
0 0 0 
0 0 0 
0 0 0 
0 0 0 
0 0 0 
0 0 0 
0 0 0 
0 0 0 
0 0 0 
0 0 0 
0 0 0 
0 0 0 
0 0 0 
0 0 0 
0 0 0 
0 0 0 
0 0 0 
0 0 0 
0 0 0 
0 0 0 
0 0 0 
0 0 0 
0 0 0 
0 0 0 
0 0 0 
0 0 0 
0 0 0 
0 0 0 
0 0 0 
0 0 0 
0 0 0 
0 0 0 
0 0 0 
0 0 0 
0 0 0 
0 0 0 
0 0 0 
0 0 0 
0 0 0 
0 0 0 
0 0 0 
0 0 0 
0 0 0 
0 0 0 
0 0 0 
0 0 0 
0 0 0 
0 0 0 
0 0 0 
0 0 0 
0 0 0 
0 0 0 
0 0 0 
0 0 0 
0 0 0 
0 0 0 
0 0 0 
0 0 0 
0 0 0 
0 0 0 
0 0 0 
0 0 0 
0 0 0 
0 0 0 
0 0 0 
0 0 0 
0 0 0 
0 0 0 
0 0 0 
0 0 0 
0 0 0 
0 0 0 
0 0 0 
0 0 0 
0 0 0 
0 0 0 
0 0 0 
0 0 0 
0 0 0 
0 0 0 
0 0 0 
0 0 0 
0 0 0 
0 0 0 
0 0 0 
0 0 0 
0 0 0 
0 0 0 
0 0 0 
0 0 0 
0 0 0 
0 0 0 
0 0 0 
0 0 0 
0 0 0 
0 0 0 
0 0 0 
0 0 0 
0 0 0 
0 0 0 
0 0 0 
0 0 0 
0 0 0 
0 0 0 
0 0 0 
0 0 0 
0 0 0 
0 0 0 
0 0 0 
0 0 0 
0 0 0 
0 0 0 
0 0 0 
0 0 0 
0 0 0 
0 0 0 
0 0 0 
0 0 0 
0 0 0 
0 0 0 
0 0 0 
0 0 0 
0 0 0 
0 0 0 
0 0 0 
0 0 0 
0 0 0 
0 0 0 
0 0 0 
0 0 0 
0 0 0 
0 0 0 
0 0 0 
0 0 0 
0 0 0 
0 0 0 
0 0 0 
0 0 0 
0 0 0 
0 0 0 
0 0 0 
0 0 0 
0 0 0 
0 0 0 
0 0 0 
0 0 0 
0 0 0 
0 0 0 
0 0 0 
0 0 0 
0 0 0 
0 0 0 
0 0 0 
0 0 0 
0 0 0 
0 0 0 
0 0 0 
0 0 0 
0 0 0 
0 0 0 
0 0 0 
0 0 0 
0 0 0 
0 0 0 
0 0 0 
0 0 0 
0 0 0 
0 0 0 
0 0 0 
0 0 0 
0 0 0 
0 0 0 
0 0 0 
0 0 0 
0 0 0 
0 0 0 
0 0 0 
0 0 0 
0 0 0 
0 0 0 
0 0 0 
0 0 0 
0 0 0 
0 0 0 
0 0 0 
0 0 0 
0 0 0 
0 0 0 
0 0 0 
0 0 0 
0 0 0 
0 0 0 
0 0 0 
0 0 0 
0 0 0 
0 0 0 
0 0 0 
0 0 0 
0 0 0 
0 0 0 
0 0 0 
0 0 0 
0 0 0 
0 0 0 
0 0 0 
0 0 0 
0 0 0 
0 0 0 
0 0 0 
0 0 0 
0 0 0 
0 0 0 
0 0 0 
0 0 0 
0 0 0 
0 0 0 
0 0 0 
0 0 0 
0 0 0 
0 0 0 
0 0 0 
0 0 0 
0 0 0 
0 0 0 
0 0 0 
0 0 0 
0 0 0 
0 0 0 
0 0 0 
0 0 0 
0 0 0 
0 0 0 
0 0 0 
SCALARS mass double 1
LOOKUP_TABLE default
0
0
0
0
0
0
0
0.0129807
0.034729
0.0182314
0.0521481
0.0233231
0.000111765
0
0
0
0
0
0
0
0
0
0
0
0
0
0
0
0.363543
1.6038
1.63791
1.73388
1.08392
0.0098291
0
0
0
0
0
0
0
0
0
0
0
0
0
0
0
0.613243
2.34576
2.59557
2.6615
1.66658
0.015811
0
0
0
0
0
0
0
0
0
0
0
0
0
0
0
0.620344
2.36336
2.48058
2.57323
1.95622
0.108624
0
0
0
0
0
0
0
0
0
0
0
0
0
0
0
0.458625
2.3112
2.45079
2.40084
1.92562
0.251983
0
0
0
0
0
0
0
0
0
0
0
0
0
0
0
0.211354
1.13872
1.05806
0.754282
0.409498
0.0537867
0
0
0
0
0
0
0
0
0
0
0
0
0
0
0
0
0
0
0
0
0
0
0
0
0
0
0
0
0
0
0
0
0
0
0
0
0
0
0
0
0
0
0
0
0
0
0
0
0
0
0
0
0
0
0
0
0
0
0
0
0
0
0
0
0
0
0
0
0
0
0
0
0
0
0
0
0
0
0
0
0
0
0
0
0
0
0
0
0
0
0
0
0
0
0
0
0
0
0
0
0
0
0
0
0
0
0
0
0
0
0
0
0
0
0
0
0
0
0
0
0
0
0
0
0
0
0
0
0
0
0
0
0
0
0
0
0
0
0
0
0
0
0
0
0
0
0
0
0
0
0
0
0
0
0
0
0
0
0
0
0
0
0
0
0
0
0
0
0
0
0
0
0
0
0
0
0
0
0
0
0
0
0
0
0
0
0
0
0
0
0
0
0
0
0
0
0
0
0
0
0
0
0
0
0
0
0
0
0
0
0
0
0
0
0
0
0
0
0
0
0
0
0
0
0
0
0
0
0
0
0
0
0
0
0
0
0
0
0
0
0
0
0
0
0
0
0
0
0
0
0
0
0
0
0
0
0
0
0
0
0
0
0
0
0
0
0
0
0
0
0
0
0
0
0
0
0
0
0
0
0
0
0
0
0
0
0
0
0
0
0
0
0
0
0
0
0
0
0
0
0
0
0
0
0
0
0
0
0
0
0
0
0
0
0
0
0
0
0
0
0
0
0
VECTORS momentum double
0 0 0 
0 0 0 
0 0 0 
0 0 0 
0 0 0 
0 0 0 
0 0 0 
0 0 0 
0 0 0 
0 0 0 
0 0 0 
0 0 0 
0 0 0 
0 0 0 
0 0 0 
0 0 0 
0 0 0 
0 0 0 
0 0 0 
0 0 0 
0 0 0 
0 0 0 
0 0 0 
0 0 0 
0 0 0 
0 0 0 
0 0 0 
0 0 0 
0.0382713 0.230449 0 
-0.0603508 0.975134 0 
-0.979047 0.782761 0 
-1.69195 1.2674 0 
-1.26022 1.00989 0 
-0.0143755 0.0190503 0 
0 0 0 
0 0 0 
0 0 0 
0 0 0 
0 0 0 
0 0 0 
0 0 0 
0 0 0 
0 0 0 
0 0 0 
0 0 0 
0 0 0 
0 0 0 
0 0 0 
0 0 0 
0.19057 0.170937 0 
0.877716 1.21692 0 
0.759977 2.32974 0 
0.0663209 3.24728 0 
-0.157382 1.83399 0 
-0.000672771 0.0138619 0 
0 0 0 
0 0 0 
0 0 0 
0 0 0 
0 0 0 
0 0 0 
0 0 0 
0 0 0 
0 0 0 
0 0 0 
0 0 0 
0 0 0 
0 0 0 
0 0 0 
0 0 0 
-0.211248 -0.0569457 0 
-0.573146 1.22958 0 
-0.711705 3.5913 0 
0.403739 4.71015 0 
0.391237 4.34583 0 
-0.0349567 0.295796 0 
0 0 0 
0 0 0 
0 0 0 
0 0 0 
0 0 0 
0 0 0 
0 0 0 
0 0 0 
0 0 0 
0 0 0 
0 0 0 
0 0 0 
0 0 0 
0 0 0 
0 0 0 
-0.521768 -0.0583702 0 
-2.19847 1.35762 0 
-1.46359 3.47247 0 
-0.976805 4.10158 0 
-1.39952 4.42188 0 
-0.295507 0.623135 0 
0 0 0 
0 0 0 
0 0 0 
0 0 0 
0 0 0 
0 0 0 
0 0 0 
0 0 0 
0 0 0 
0 0 0 
0 0 0 
0 0 0 
0 0 0 
0 0 0 
0 0 0 
-0.328947 0.0264108 0 
-2.09501 0.744689 0 
-2.11727 0.889162 0 
-1.24337 1.25622 0 
-0.694442 1.21534 0 
-0.0294872 0.227196 0 
0 0 0 
0 0 0 
0 0 0 
0 0 0 
0 0 0 
0 0 0 
0 0 0 
0 0 0 
0 0 0 
0 0 0 
0 0 0 
0 0 0 
0 0 0 
0 0 0 
0 0 0 
0 0 0 
0 0 0 
0 0 0 
0 0 0 
0 0 0 
0 0 0 
0 0 0 
0 0 0 
0 0 0 
0 0 0 
0 0 0 
0 0 0 
0 0 0 
0 0 0 
0 0 0 
0 0 0 
0 0 0 
0 0 0 
0 0 0 
0 0 0 
0 0 0 
0 0 0 
0 0 0 
0 0 0 
0 0 0 
0 0 0 
0 0 0 
0 0 0 
0 0 0 
0 0 0 
0 0 0 
0 0 0 
0 0 0 
0 0 0 
0 0 0 
0 0 0 
0 0 0 
0 0 0 
0 0 0 
0 0 0 
0 0 0 
0 0 0 
0 0 0 
0 0 0 
0 0 0 
0 0 0 
0 0 0 
0 0 0 
0 0 0 
0 0 0 
0 0 0 
0 0 0 
0 0 0 
0 0 0 
0 0 0 
0 0 0 
0 0 0 
0 0 0 
0 0 0 
0 0 0 
0 0 0 
0 0 0 
0 0 0 
0 0 0 
0 0 0 
0 0 0 
0 0 0 
0 0 0 
0 0 0 
0 0 0 
0 0 0 
0 0 0 
0 0 0 
0 0 0 
0 0 0 
0 0 0 
0 0 0 
0 0 0 
0 0 0 
0 0 0 
0 0 0 
0 0 0 
0 0 0 
0 0 0 
0 0 0 
0 0 0 
0 0 0 
0 0 0 
0 0 0 
0 0 0 
0 0 0 
0 0 0 
0 0 0 
0 0 0 
0 0 0 
0 0 0 
0 0 0 
0 0 0 
0 0 0 
0 0 0 
0 0 0 
0 0 0 
0 0 0 
0 0 0 
0 0 0 
0 0 0 
0 0 0 
0 0 0 
0 0 0 
0 0 0 
0 0 0 
0 0 0 
0 0 0 
0 0 0 
0 0 0 
0 0 0 
0 0 0 
0 0 0 
0 0 0 
0 0 0 
0 0 0 
0 0 0 
0 0 0 
0 0 0 
0 0 0 
0 0 0 
0 0 0 
0 0 0 
0 0 0 
0 0 0 
0 0 0 
0 0 0 
0 0 0 
0 0 0 
0 0 0 
0 0 0 
0 0 0 
0 0 0 
0 0 0 
0 0 0 
0 0 0 
0 0 0 
0 0 0 
0 0 0 
0 0 0 
0 0 0 
0 0 0 
0 0 0 
0 0 0 
0 0 0 
0 0 0 
0 0 0 
0 0 0 
0 0 0 
0 0 0 
0 0 0 
0 0 0 
0 0 0 
0 0 0 
0 0 0 
0 0 0 
0 0 0 
0 0 0 
0 0 0 
0 0 0 
0 0 0 
0 0 0 
0 0 0 
0 0 0 
0 0 0 
0 0 0 
0 0 0 
0 0 0 
0 0 0 
0 0 0 
0 0 0 
0 0 0 
0 0 0 
0 0 0 
0 0 0 
0 0 0 
0 0 0 
0 0 0 
0 0 0 
0 0 0 
0 0 0 
0 0 0 
0 0 0 
0 0 0 
0 0 0 
0 0 0 
0 0 0 
0 0 0 
0 0 0 
0 0 0 
0 0 0 
0 0 0 
0 0 0 
0 0 0 
0 0 0 
0 0 0 
0 0 0 
0 0 0 
0 0 0 
0 0 0 
0 0 0 
0 0 0 
0 0 0 
0 0 0 
0 0 0 
0 0 0 
0 0 0 
0 0 0 
0 0 0 
0 0 0 
0 0 0 
0 0 0 
0 0 0 
0 0 0 
0 0 0 
0 0 0 
0 0 0 
0 0 0 
0 0 0 
0 0 0 
0 0 0 
0 0 0 
0 0 0 
0 0 0 
0 0 0 
0 0 0 
0 0 0 
0 0 0 
0 0 0 
0 0 0 
0 0 0 
0 0 0 
0 0 0 
0 0 0 
0 0 0 
0 0 0 
0 0 0 
0 0 0 
0 0 0 
0 0 0 
0 0 0 
0 0 0 
0 0 0 
0 0 0 
0 0 0 
0 0 0 
0 0 0 
0 0 0 
0 0 0 
0 0 0 
0 0 0 
0 0 0 
0 0 0 
0 0 0 
0 0 0 
0 0 0 
0 0 0 
0 0 0 
0 0 0 
0 0 0 
0 0 0 
0 0 0 
0 0 0 
0 0 0 
0 0 0 
0 0 0 
0 0 0 
0 0 0 
0 0 0 
0 0 0 
0 0 0 
0 0 0 
0 0 0 
0 0 0 
0 0 0 
0 0 0 
0 0 0 
0 0 0 
0 0 0 
0 0 0 
0 0 0 
0 0 0 
0 0 0 
0 0 0 
0 0 0 
0 0 0 
0 0 0 
0 0 0 
0 0 0 
0 0 0 
0 0 0 
0 0 0 
0 0 0 
0 0 0 
0 0 0 
0 0 0 
0 0 0 
0 0 0 
0 0 0 
0 0 0 
0 0 0 
0 0 0 
0 0 0 
VECTORS force double
0 0 0 
0 0 0 
0 0 0 
0 0 0 
0 0 0 
0 0 0 
0 0 0 
0 0 0 
0 0 0 
0 0 0 
0 0 0 
0 0 0 
0 0 0 
0 0 0 
0 0 0 
0 0 0 
0 0 0 
0 0 0 
0 0 0 
0 0 0 
0 0 0 
0 0 0 
0 0 0 
0 0 0 
0 0 0 
0 0 0 
0 0 0 
0 0 0 
-62.5885 57.7439 0 
-107.167 134.846 0 
-178.75 55.0858 0 
-224.264 88.6837 0 
-8.83189 55.6752 0 
0.29598 6.55421 0 
0 0 0 
0 0 0 
0 0 0 
0 0 0 
0 0 0 
0 0 0 
0 0 0 
0 0 0 
0 0 0 
0 0 0 
0 0 0 
0 0 0 
0 0 0 
0 0 0 
0 0 0 
-45.8071 -129.445 0 
180.684 30.4099 0 
317.986 -107.442 0 
409.438 -336.616 0 
333.643 -159.566 0 
-7.10524 -7.63981 0 
0 0 0 
0 0 0 
0 0 0 
0 0 0 
0 0 0 
0 0 0 
0 0 0 
0 0 0 
0 0 0 
0 0 0 
0 0 0 
0 0 0 
0 0 0 
0 0 0 
0 0 0 
33.3542 -149.91 0 
174.47 -11.2543 0 
-138.973 151.65 0 
-297.212 -109.162 0 
-8.35169 422.666 0 
-24.4332 73.7929 0 
0 0 0 
0 0 0 
0 0 0 
0 0 0 
0 0 0 
0 0 0 
0 0 0 
0 0 0 
0 0 0 
0 0 0 
0 0 0 
0 0 0 
0 0 0 
0 0 0 
0 0 0 
-56.4449 -115.289 0 
-95.3585 -10.2882 0 
79.6957 59.5451 0 
248.945 35.992 0 
115.609 -363.955 0 
-100.381 -2.22558 0 
0 0 0 
0 0 0 
0 0 0 
0 0 0 
0 0 0 
0 0 0 
0 0 0 
0 0 0 
0 0 0 
0 0 0 
0 0 0 
0 0 0 
0 0 0 
0 0 0 
0 0 0 
6.94815 -74.7923 0 
91.1569 118.029 0 
36.1648 -82.2448 0 
-114.463 1.45082 0 
-211.261 26.7622 0 
-0.704004 84.0745 0 
0 0 0 
0 0 0 
0 0 0 
0 0 0 
0 0 0 
0 0 0 
0 0 0 
0 0 0 
0 0 0 
0 0 0 
0 0 0 
0 0 0 
0 0 0 
0 0 0 
0 0 0 
0 0 0 
0 0 0 
0 0 0 
0 0 0 
0 0 0 
0 0 0 
0 0 0 
0 0 0 
0 0 0 
0 0 0 
0 0 0 
0 0 0 
0 0 0 
0 0 0 
0 0 0 
0 0 0 
0 0 0 
0 0 0 
0 0 0 
0 0 0 
0 0 0 
0 0 0 
0 0 0 
0 0 0 
0 0 0 
0 0 0 
0 0 0 
0 0 0 
0 0 0 
0 0 0 
0 0 0 
0 0 0 