# vtk DataFile Version 3.0
Frame: 24, Time: 0.384
ASCII
DATASET UNSTRUCTURED_GRID
POINTS 441 double
0 0 0 
0.05 0 0 
0.1 0 0 
0.15 0 0 
0.2 0 0 
0.25 0 0 
0.3 0 0 
0.35 0 0 
0.4 0 0 
0.45 0 0 
0.5 0 0 
0.55 0 0 
0.6 0 0 
0.65 0 0 
0.7 0 0 
0.75 0 0 
0.8 0 0 
0.85 0 0 
0.9 0 0 
0.95 0 0 
1 0 0 
0 0.05 0 
0.05 0.05 0 
0.1 0.05 0 
0.15 0.05 0 
0.2 0.05 0 
0.25 0.05 0 
0.3 0.05 0 
0.35 0.05 0 
0.4 0.05 0 
0.45 0.05 0 
0.5 0.05 0 
0.55 0.05 0 
0.6 0.05 0 
0.65 0.05 0 
0.7 0.05 0 
0.75 0.05 0 
0.8 0.05 0 
0.85 0.05 0 
0.9 0.05 0 
0.95 0.05 0 
1 0.05 0 
0 0.1 0 
0.05 0.1 0 
0.1 0.1 0 
0.15 0.1 0 
0.2 0.1 0 
0.25 0.1 0 
0.3 0.1 0 
0.35 0.1 0 
0.4 0.1 0 
0.45 0.1 0 
0.5 0.1 0 
0.55 0.1 0 
0.6 0.1 0 
0.65 0.1 0 
0.7 0.1 0 
0.75 0.1 0 
0.8 0.1 0 
0.85 0.1 0 
0.9 0.1 0 
0.95 0.1 0 
1 0.1 0 
0 0.15 0 
0.05 0.15 0 
0.1 0.15 0 
0.15 0.15 0 
0.2 0.15 0 
0.25 0.15 0 
0.3 0.15 0 
0.35 0.15 0 
0.4 0.15 0 
0.45 0.15 0 
0.5 0.15 0 
0.55 0.15 0 
0.6 0.15 0 
0.65 0.15 0 
0.7 0.15 0 
0.75 0.15 0 
0.8 0.15 0 
0.85 0.15 0 
0.9 0.15 0 
0.95 0.15 0 
1 0.15 0 
0 0.2 0 
0.05 0.2 0 
0.1 0.2 0 
0.15 0.2 0 
0.2 0.2 0 
0.25 0.2 0 
0.3 0.2 0 
0.35 0.2 0 
0.4 0.2 0 
0.45 0.2 0 
0.5 0.2 0 
0.55 0.2 0 
0.6 0.2 0 
0.65 0.2 0 
0.7 0.2 0 
0.75 0.2 0 
0.8 0.2 0 
0.85 0.2 0 
0.9 0.2 0 
0.95 0.2 0 
1 0.2 0 
0 0.25 0 
0.05 0.25 0 
0.1 0.25 0 
0.15 0.25 0 
0.2 0.25 0 
0.25 0.25 0 
0.3 0.25 0 
0.35 0.25 0 
0.4 0.25 0 
0.45 0.25 0 
0.5 0.25 0 
0.55 0.25 0 
0.6 0.25 0 
0.65 0.25 0 
0.7 0.25 0 
0.75 0.25 0 
0.8 0.25 0 
0.85 0.25 0 
0.9 0.25 0 
0.95 0.25 0 
1 0.25 0 
0 0.3 0 
0.05 0.3 0 
0.1 0.3 0 
0.15 0.3 0 
0.2 0.3 0 
0.25 0.3 0 
0.3 0.3 0 
0.35 0.3 0 
0.4 0.3 0 
0.45 0.3 0 
0.5 0.3 0 
0.55 0.3 0 
0.6 0.3 0 
0.65 0.3 0 
0.7 0.3 0 
0.75 0.3 0 
0.8 0.3 0 
0.85 0.3 0 
0.9 0.3 0 
0.95 0.3 0 
1 0.3 0 
0 0.35 0 
0.05 0.35 0 
0.1 0.35 0 
0.15 0.35 0 
0.2 0.35 0 
0.25 0.35 0 
0.3 0.35 0 
0.35 0.35 0 
0.4 0.35 0 
0.45 0.35 0 
0.5 0.35 0 
0.55 0.35 0 
0.6 0.35 0 
0.65 0.35 0 
0.7 0.35 0 
0.75 0.35 0 
0.8 0.35 0 
0.85 0.35 0 
0.9 0.35 0 
0.95 0.35 0 
1 0.35 0 
0 0.4 0 
0.05 0.4 0 
0.1 0.4 0 
0.15 0.4 0 
0.2 0.4 0 
0.25 0.4 0 
0.3 0.4 0 
0.35 0.4 0 
0.4 0.4 0 
0.45 0.4 0 
0.5 0.4 0 
0.55 0.4 0 
0.6 0.4 0 
0.65 0.4 0 
0.7 0.4 0 
0.75 0.4 0 
0.8 0.4 0 
0.85 0.4 0 
0.9 0.4 0 
0.95 0.4 0 
1 0.4 0 
0 0.45 0 
0.05 0.45 0 
0.1 0.45 0 
0.15 0.45 0 
0.2 0.45 0 
0.25 0.45 0 
0.3 0.45 0 
0.35 0.45 0 
0.4 0.45 0 
0.45 0.45 0 
0.5 0.45 0 
0.55 0.45 0 
0.6 0.45 0 
0.65 0.45 0 
0.7 0.45 0 
0.75 0.45 0 
0.8 0.45 0 
0.85 0.45 0 
0.9 0.45 0 
0.95 0.45 0 
1 0.45 0 
0 0.5 0 
0.05 0.5 0 
0.1 0.5 0 
0.15 0.5 0 
0.2 0.5 0 
0.25 0.5 0 
0.3 0.5 0 
0.35 0.5 0 
0.4 0.5 0 
0.45 0.5 0 
0.5 0.5 0 
0.55 0.5 0 
0.6 0.5 0 
0.65 0.5 0 
0.7 0.5 0 
0.75 0.5 0 
0.8 0.5 0 
0.85 0.5 0 
0.9 0.5 0 
0.95 0.5 0 
1 0.5 0 
0 0.55 0 
0.05 0.55 0 
0.1 0.55 0 
0.15 0.55 0 
0.2 0.55 0 
0.25 0.55 0 
0.3 0.55 0 
0.35 0.55 0 
0.4 0.55 0 
0.45 0.55 0 
0.5 0.55 0 
0.55 0.55 0 
0.6 0.55 0 
0.65 0.55 0 
0.7 0.55 0 
0.75 0.55 0 
0.8 0.55 0 
0.85 0.55 0 
0.9 0.55 0 
0.95 0.55 0 
1 0.55 0 
0 0.6 0 
0.05 0.6 0 
0.1 0.6 0 
0.15 0.6 0 
0.2 0.6 0 
0.25 0.6 0 
0.3 0.6 0 
0.35 0.6 0 
0.4 0.6 0 
0.45 0.6 0 
0.5 0.6 0 
0.55 0.6 0 
0.6 0.6 0 
0.65 0.6 0 
0.7 0.6 0 
0.75 0.6 0 
0.8 0.6 0 
0.85 0.6 0 
0.9 0.6 0 
0.95 0.6 0 
1 0.6 0 
0 0.65 0 
0.05 0.65 0 
0.1 0.65 0 
0.15 0.65 0 
0.2 0.65 0 
0.25 0.65 0 
0.3 0.65 0 
0.35 0.65 0 
0.4 0.65 0 
0.45 0.65 0 
0.5 0.65 0 
0.55 0.65 0 
0.6 0.65 0 
0.65 0.65 0 
0.7 0.65 0 
0.75 0.65 0 
0.8 0.65 0 
0.85 0.65 0 
0.9 0.65 0 
0.95 0.65 0 
1 0.65 0 
0 0.7 0 
0.05 0.7 0 
0.1 0.7 0 
0.15 0.7 0 
0.2 0.7 0 
0.25 0.7 0 
0.3 0.7 0 
0.35 0.7 0 
0.4 0.7 0 
0.45 0.7 0 
0.5 0.7 0 
0.55 0.7 0 
0.6 0.7 0 
0.65 0.7 0 
0.7 0.7 0 
0.75 0.7 0 
0.8 0.7 0 
0.85 0.7 0 
0.9 0.7 0 
0.95 0.7 0 
1 0.7 0 
0 0.75 0 
0.05 0.75 0 
0.1 0.75 0 
0.15 0.75 0 
0.2 0.75 0 
0.25 0.75 0 
0.3 0.75 0 
0.35 0.75 0 
0.4 0.75 0 
0.45 0.75 0 
0.5 0.75 0 
0.55 0.75 0 
0.6 0.75 0 
0.65 0.75 0 
0.7 0.75 0 
0.75 0.75 0 
0.8 0.75 0 
0.85 0.75 0 
0.9 0.75 0 
0.95 0.75 0 
1 0.75 0 
0 0.8 0 
0.05 0.8 0 
0.1 0.8 0 
0.15 0.8 0 
0.2 0.8 0 
0.25 0.8 0 
0.3 0.8 0 
0.35 0.8 0 
0.4 0.8 0 
0.45 0.8 0 
0.5 0.8 0 
0.55 0.8 0 
0.6 0.8 0 
0.65 0.8 0 
0.7 0.8 0 
0.75 0.8 0 
0.8 0.8 0 
0.85 0.8 0 
0.9 0.8 0 
0.95 0.8 0 
1 0.8 0 
0 0.85 0 
0.05 0.85 0 
0.1 0.85 0 
0.15 0.85 0 
0.2 0.85 0 
0.25 0.85 0 
0.3 0.85 0 
0.35 0.85 0 
0.4 0.85 0 
0.45 0.85 0 
0.5 0.85 0 
0.55 0.85 0 
0.6 0.85 0 
0.65 0.85 0 
0.7 0.85 0 
0.75 0.85 0 
0.8 0.85 0 
0.85 0.85 0 
0.9 0.85 0 
0.95 0.85 0 
1 0.85 0 
0 0.9 0 
0.05 0.9 0 
0.1 0.9 0 
0.15 0.9 0 
0.2 0.9 0 
0.25 0.9 0 
0.3 0.9 0 
0.35 0.9 0 
0.4 0.9 0 
0.45 0.9 0 
0.5 0.9 0 
0.55 0.9 0 
0.6 0.9 0 
0.65 0.9 0 
0.7 0.9 0 
0.75 0.9 0 
0.8 0.9 0 
0.85 0.9 0 
0.9 0.9 0 
0.95 0.9 0 
1 0.9 0 
0 0.95 0 
0.05 0.95 0 
0.1 0.95 0 
0.15 0.95 0 
0.2 0.95 0 
0.25 0.95 0 
0.3 0.95 0 
0.35 0.95 0 
0.4 0.95 0 
0.45 0.95 0 
0.5 0.95 0 
0.55 0.95 0 
0.6 0.95 0 
0.65 0.95 0 
0.7 0.95 0 
0.75 0.95 0 
0.8 0.95 0 
0.85 0.95 0 
0.9 0.95 0 
0.95 0.95 0 
1 0.95 0 
0 1 0 
0.05 1 0 
0.1 1 0 
0.15 1 0 
0.2 1 0 
0.25 1 0 
0.3 1 0 
0.35 1 0 
0.4 1 0 
0.45 1 0 
0.5 1 0 
0.55 1 0 
0.6 1 0 
0.65 1 0 
0.7 1 0 
0.75 1 0 
0.8 1 0 
0.85 1 0 
0.9 1 0 
0.95 1 0 
1 1 0 
CELLS 400 2000
4 0 1 21 22
4 1 2 22 23
4 2 3 23 24
4 3 4 24 25
4 4 5 25 26
4 5 6 26 27
4 6 7 27 28
4 7 8 28 29
4 8 9 29 30
4 9 10 30 31
4 10 11 31 32
4 11 12 32 33
4 12 13 33 34
4 13 14 34 35
4 14 15 35 36
4 15 16 36 37
4 16 17 37 38
4 17 18 38 39
4 18 19 39 40
4 19 20 40 41
4 21 22 42 43
4 22 23 43 44
4 23 24 44 45
4 24 25 45 46
4 25 26 46 47
4 26 27 47 48
4 27 28 48 49
4 28 29 49 50
4 29 30 50 51
4 30 31 51 52
4 31 32 52 53
4 32 33 53 54
4 33 34 54 55
4 34 35 55 56
4 35 36 56 57
4 36 37 57 58
4 37 38 58 59
4 38 39 59 60
4 39 40 60 61
4 40 41 61 62
4 42 43 63 64
4 43 44 64 65
4 44 45 65 66
4 45 46 66 67
4 46 47 67 68
4 47 48 68 69
4 48 49 69 70
4 49 50 70 71
4 50 51 71 72
4 51 52 72 73
4 52 53 73 74
4 53 54 74 75
4 54 55 75 76
4 55 56 76 77
4 56 57 77 78
4 57 58 78 79
4 58 59 79 80
4 59 60 80 81
4 60 61 81 82
4 61 62 82 83
4 63 64 84 85
4 64 65 85 86
4 65 66 86 87
4 66 67 87 88
4 67 68 88 89
4 68 69 89 90
4 69 70 90 91
4 70 71 91 92
4 71 72 92 93
4 72 73 93 94
4 73 74 94 95
4 74 75 95 96
4 75 76 96 97
4 76 77 97 98
4 77 78 98 99
4 78 79 99 100
4 79 80 100 101
4 80 81 101 102
4 81 82 102 103
4 82 83 103 104
4 84 85 105 106
4 85 86 106 107
4 86 87 107 108
4 87 88 108 109
4 88 89 109 110
4 89 90 110 111
4 90 91 111 112
4 91 92 112 113
4 92 93 113 114
4 93 94 114 115
4 94 95 115 116
4 95 96 116 117
4 96 97 117 118
4 97 98 118 119
4 98 99 119 120
4 99 100 120 121
4 100 101 121 122
4 101 102 122 123
4 102 103 123 124
4 103 104 124 125
4 105 106 126 127
4 106 107 127 128
4 107 108 128 129
4 108 109 129 130
4 109 110 130 131
4 110 111 131 132
4 111 112 132 133
4 112 113 133 134
4 113 114 134 135
4 114 115 135 136
4 115 116 136 137
4 116 117 137 138
4 117 118 138 139
4 118 119 139 140
4 119 120 140 141
4 120 121 141 142
4 121 122 142 143
4 122 123 143 144
4 123 124 144 145
4 124 125 145 146
4 126 127 147 148
4 127 128 148 149
4 128 129 149 150
4 129 130 150 151
4 130 131 151 152
4 131 132 152 153
4 132 133 153 154
4 133 134 154 155
4 134 135 155 156
4 135 136 156 157
4 136 137 157 158
4 137 138 158 159
4 138 139 159 160
4 139 140 160 161
4 140 141 161 162
4 141 142 162 163
4 142 143 163 164
4 143 144 164 165
4 144 145 165 166
4 145 146 166 167
4 147 148 168 169
4 148 149 169 170
4 149 150 170 171
4 150 151 171 172
4 151 152 172 173
4 152 153 173 174
4 153 154 174 175
4 154 155 175 176
4 155 156 176 177
4 156 157 177 178
4 157 158 178 179
4 158 159 179 180
4 159 160 180 181
4 160 161 181 182
4 161 162 182 183
4 162 163 183 184
4 163 164 184 185
4 164 165 185 186
4 165 166 186 187
4 166 167 187 188
4 168 169 189 190
4 169 170 190 191
4 170 171 191 192
4 171 172 192 193
4 172 173 193 194
4 173 174 194 195
4 174 175 195 196
4 175 176 196 197
4 176 177 197 198
4 177 178 198 199
4 178 179 199 200
4 179 180 200 201
4 180 181 201 202
4 181 182 202 203
4 182 183 203 204
4 183 184 204 205
4 184 185 205 206
4 185 186 206 207
4 186 187 207 208
4 187 188 208 209
4 189 190 210 211
4 190 191 211 212
4 191 192 212 213
4 192 193 213 214
4 193 194 214 215
4 194 195 215 216
4 195 196 216 217
4 196 197 217 218
4 197 198 218 219
4 198 199 219 220
4 199 200 220 221
4 200 201 221 222
4 201 202 222 223
4 202 203 223 224
4 203 204 224 225
4 204 205 225 226
4 205 206 226 227
4 206 207 227 228
4 207 208 228 229
4 208 209 229 230
4 210 211 231 232
4 211 212 232 233
4 212 213 233 234
4 213 214 234 235
4 214 215 235 236
4 215 216 236 237
4 216 217 237 238
4 217 218 238 239
4 218 219 239 240
4 219 220 240 241
4 220 221 241 242
4 221 222 242 243
4 222 223 243 244
4 223 224 244 245
4 224 225 245 246
4 225 226 246 247
4 226 227 247 248
4 227 228 248 249
4 228 229 249 250
4 229 230 250 251
4 231 232 252 253
4 232 233 253 254
4 233 234 254 255
4 234 235 255 256
4 235 236 256 257
4 236 237 257 258
4 237 238 258 259
4 238 239 259 260
4 239 240 260 261
4 240 241 261 262
4 241 242 262 263
4 242 243 263 264
4 243 244 264 265
4 244 245 265 266
4 245 246 266 267
4 246 247 267 268
4 247 248 268 269
4 248 249 269 270
4 249 250 270 271
4 250 251 271 272
4 252 253 273 274
4 253 254 274 275
4 254 255 275 276
4 255 256 276 277
4 256 257 277 278
4 257 258 278 279
4 258 259 279 280
4 259 260 280 281
4 260 261 281 282
4 261 262 282 283
4 262 263 283 284
4 263 264 284 285
4 264 265 285 286
4 265 266 286 287
4 266 267 287 288
4 267 268 288 289
4 268 269 289 290
4 269 270 290 291
4 270 271 291 292
4 271 272 292 293
4 273 274 294 295
4 274 275 295 296
4 275 276 296 297
4 276 277 297 298
4 277 278 298 299
4 278 279 299 300
4 279 280 300 301
4 280 281 301 302
4 281 282 302 303
4 282 283 303 304
4 283 284 304 305
4 284 285 305 306
4 285 286 306 307
4 286 287 307 308
4 287 288 308 309
4 288 289 309 310
4 289 290 310 311
4 290 291 311 312
4 291 292 312 313
4 292 293 313 314
4 294 295 315 316
4 295 296 316 317
4 296 297 317 318
4 297 298 318 319
4 298 299 319 320
4 299 300 320 321
4 300 301 321 322
4 301 302 322 323
4 302 303 323 324
4 303 304 324 325
4 304 305 325 326
4 305 306 326 327
4 306 307 327 328
4 307 308 328 329
4 308 309 329 330
4 309 310 330 331
4 310 311 331 332
4 311 312 332 333
4 312 313 333 334
4 313 314 334 335
4 315 316 336 337
4 316 317 337 338
4 317 318 338 339
4 318 319 339 340
4 319 320 340 341
4 320 321 341 342
4 321 322 342 343
4 322 323 343 344
4 323 324 344 345
4 324 325 345 346
4 325 326 346 347
4 326 327 347 348
4 327 328 348 349
4 328 329 349 350
4 329 330 350 351
4 330 331 351 352
4 331 332 352 353
4 332 333 353 354
4 333 334 354 355
4 334 335 355 356
4 336 337 357 358
4 337 338 358 359
4 338 339 359 360
4 339 340 360 361
4 340 341 361 362
4 341 342 362 363
4 342 343 363 364
4 343 344 364 365
4 344 345 365 366
4 345 346 366 367
4 346 347 367 368
4 347 348 368 369
4 348 349 369 370
4 349 350 370 371
4 350 351 371 372
4 351 352 372 373
4 352 353 373 374
4 353 354 374 375
4 354 355 375 376
4 355 356 376 377
4 357 358 378 379
4 358 359 379 380
4 359 360 380 381
4 360 361 381 382
4 361 362 382 383
4 362 363 383 384
4 363 364 384 385
4 364 365 385 386
4 365 366 386 387
4 366 367 387 388
4 367 368 388 389
4 368 369 389 390
4 369 370 390 391
4 370 371 391 392
4 371 372 392 393
4 372 373 393 394
4 373 374 394 395
4 374 375 395 396
4 375 376 396 397
4 376 377 397 398
4 378 379 399 400
4 379 380 400 401
4 380 381 401 402
4 381 382 402 403
4 382 383 403 404
4 383 384 404 405
4 384 385 405 406
4 385 386 406 407
4 386 387 407 408
4 387 388 408 409
4 388 389 409 410
4 389 390 410 411
4 390 391 411 412
4 391 392 412 413
4 392 393 413 414
4 393 394 414 415
4 394 395 415 416
4 395 396 416 417
4 396 397 417 418
4 397 398 418 419
4 399 400 420 421
4 400 401 421 422
4 401 402 422 423
4 402 403 423 424
4 403 404 424 425
4 404 405 425 426
4 405 406 426 427
4 406 407 427 428
4 407 408 428 429
4 408 409 429 430
4 409 410 430 431
4 410 411 431 432
4 411 412 432 433
4 412 413 433 434
4 413 414 434 435
4 414 415 435 436
4 415 416 436 437
4 416 417 437 438
4 417 418 438 439
4 418 419 439 440
CELL_TYPES 400
8
8
8
8
8
8
8
8
8
8
8
8
8
8
8
8
8
8
8
8
8
8
8
8
8
8
8
8
8
8
8
8
8
8
8
8
8
8
8
8
8
8
8
8
8
8
8
8
8
8
8
8
8
8
8
8
8
8
8
8
8
8
8
8
8
8
8
8
8
8
8
8
8
8
8
8
8
8
8
8
8
8
8
8
8
8
8
8
8
8
8
8
8
8
8
8
8
8
8
8
8
8
8
8
8
8
8
8
8
8
8
8
8
8
8
8
8
8
8
8
8
8
8
8
8
8
8
8
8
8
8
8
8
8
8
8
8
8
8
8
8
8
8
8
8
8
8
8
8
8
8
8
8
8
8
8
8
8
8
8
8
8
8
8
8
8
8
8
8
8
8
8
8
8
8
8
8
8
8
8
8
8
8
8
8
8
8
8
8
8
8
8
8
8
8
8
8
8
8
8
8
8
8
8
8
8
8
8
8
8
8
8
8
8
8
8
8
8
8
8
8
8
8
8
8
8
8
8
8
8
8
8
8
8
8
8
8
8
8
8
8
8
8
8
8
8
8
8
8
8
8
8
8
8
8
8
8
8
8
8
8
8
8
8
8
8
8
8
8
8
8
8
8
8
8
8
8
8
8
8
8
8
8
8
8
8
8
8
8
8
8
8
8
8
8
8
8
8
8
8
8
8
8
8
8
8
8
8
8
8
8
8
8
8
8
8
8
8
8
8
8
8
8
8
8
8
8
8
8
8
8
8
8
8
8
8
8
8
8
8
8
8
8
8
8
8
8
8
8
8
8
8
8
8
8
8
8
8
8
8
8
8
8
8
8
8
8
8
8
8
8
8
8
8
8
8
8
8
8
8
8
8
8
8
8
8
8
8
8
8
8
8
8
8
8
8
8
8
8
8
POINT_DATA 441
VECTORS displacement double
0 0 0 
0 0 0 
0 0 0 
0 0 0 
0 0 0 
0 0 0 
0 0 0 
0 0 0 
0 0 0 
0 0 0 
0 0 0 
0 0 0 
0 0 0 
0 0 0 
0 0 0 
0 0 0 
0 0 0 
0 0 0 
0 0 0 
0 0 0 
0 0 0 
0 0 0 
0 0 0 
0 0 0 
0 0 0 
0 0 0 
0 0 0 
0 0 0 
-0.00064345 0.00142038 0 
-0.000288012 0.00114989 0 
-9.77499e-05 0.00144321 0 
0.00020101 0.0013669 0 
0.000380243 0.000647554 0 
0 0 0 
0 0 0 
0 0 0 
0 0 0 
0 0 0 
0 0 0 
0 0 0 
0 0 0 
0 0 0 
0 0 0 
0 0 0 
0 0 0 
0 0 0 
0 0 0 
0 0 0 
0 0 0 
-0.000365079 0.00110234 0 
-0.000115873 0.0011491 0 
0.000187534 0.0013476 0 
0.000516884 0.00137019 0 
0.00043127 0.00115886 0 
0.000288896 0.00228847 0 
0 0 0 
0 0 0 
0 0 0 
0 0 0 
0 0 0 
0 0 0 
0 0 0 
0 0 0 
0 0 0 
0 0 0 
0 0 0 
0 0 0 
0 0 0 
0 0 0 
0 0 0 
-9.78332e-05 0.000303054 0 
-4.00127e-06 0.000885576 0 
-5.95766e-05 0.00101396 0 
-0.000133761 0.00108141 0 
-0.000320735 0.00152055 0 
-0.00141313 0.0016285 0 
0 0 0 
0 0 0 
0 0 0 
0 0 0 
0 0 0 
0 0 0 
0 0 0 
0 0 0 
0 0 0 
0 0 0 
0 0 0 
0 0 0 
0 0 0 
0 0 0 
0 0 0 
-0.000563088 -0.000433801 0 
-0.000497938 0.00047879 0 
-0.000834317 0.000468757 0 
-0.00088651 0.000879548 0 
-0.0010315 0.00183781 0 
-0.000869829 0.00242018 0 
0 0 0 
0 0 0 
0 0 0 
0 0 0 
0 0 0 
0 0 0 
0 0 0 
0 0 0 
0 0 0 
0 0 0 
0 0 0 
0 0 0 
0 0 0 
0 0 0 
0 0 0 
-0.000925613 -0.000677418 0 
-0.000962392 0.000375301 0 
-0.00101176 0.000499602 0 
-0.00137055 0.00130353 0 
-0.00139167 0.00163067 0 
0.000799368 0.00239897 0 
0 0 0 
0 0 0 
0 0 0 
0 0 0 
0 0 0 
0 0 0 
0 0 0 
0 0 0 
0 0 0 
0 0 0 
0 0 0 
0 0 0 
0 0 0 
0 0 0 
0 0 0 
-0.00130888 0.00197512 0 
-0.00113993 0.000583976 0 
-0.00166095 0.00111258 0 
-0.00260604 0.000865869 0 
-0.00237809 0.00280883 0 
0 0 0 
0 0 0 
0 0 0 
0 0 0 
0 0 0 
0 0 0 
0 0 0 
0 0 0 
0 0 0 
0 0 0 
0 0 0 
0 0 0 
0 0 0 
0 0 0 
0 0 0 
0 0 0 
0 0 0 
0 0 0 
0 0 0 
0 0 0 
0 0 0 
0 0 0 
0 0 0 
0 0 0 
0 0 0 
0 0 0 
0 0 0 
0 0 0 
0 0 0 
0 0 0 
0 0 0 
0 0 0 
0 0 0 
0 0 0 
0 0 0 
0 0 0 
0 0 0 
0 0 0 
0 0 0 
0 0 0 
0 0 0 
0 0 0 
0 0 0 
0 0 0 
0 0 0 
0 0 0 
0 0 0 
0 0 0 
0 0 0 
0 0 0 
0 0 0 
0 0 0 
0 0 0 
0 0 0 
0 0 0 
0 0 0 
0 0 0 
0 0 0 
0 0 0 
0 0 0 
0 0 0 
0 0 0 
0 0 0 
0 0 0 
0 0 0 
0 0 0 
0 0 0 
0 0 0 
0 0 0 
0 0 0 
0 0 0 
0 0 0 
0 0 0 
0 0 0 
0 0 0 
0 0 0 
0 0 0 
0 0 0 
0 0 0 
0 0 0 
0 0 0 
0 0 0 
0 0 0 
0 0 0 
0 0 0 
0 0 0 
0 0 0 
0 0 0 
0 0 0 
0 0 0 
0 0 0 
0 0 0 
0 0 0 
0 0 0 
0 0 0 
0 0 0 
0 0 0 
0 0 0 
0 0 0 
0 0 0 
0 0 0 
0 0 0 
0 0 0 
0 0 0 
0 0 0 
0 0 0 
0 0 0 
0 0 0 
0 0 0 
0 0 0 
0 0 0 
0 0 0 
0 0 0 
0 0 0 
0 0 0 
0 0 0 
0 0 0 
0 0 0 
0 0 0 
0 0 0 
0 0 0 
0 0 0 
0 0 0 
0 0 0 
0 0 0 
0 0 0 
0 0 0 
0 0 0 
0 0 0 
0 0 0 
0 0 0 
0 0 0 
0 0 0 
0 0 0 
0 0 0 
0 0 0 
0 0 0 
0 0 0 
0 0 0 
0 0 0 
0 0 0 
0 0 0 
0 0 0 
0 0 0 
0 0 0 
0 0 0 
0 0 0 
0 0 0 
0 0 0 
0 0 0 
0 0 0 
0 0 0 
0 0 0 
0 0 0 
0 0 0 
0 0 0 
0 0 0 
0 0 0 
0 0 0 
0 0 0 
0 0 0 
0 0 0 
0 0 0 
0 0 0 
0 0 0 
0 0 0 
0 0 0 
0 0 0 
0 0 0 
0 0 0 
0 0 0 
0 0 0 
0 0 0 
0 0 0 
0 0 0 
0 0 0 
0 0 0 
0 0 0 
0 0 0 
0 0 0 
0 0 0 
0 0 0 
0 0 0 
0 0 0 
0 0 0 
0 0 0 
0 0 0 
0 0 0 
0 0 0 
0 0 0 
0 0 0 
0 0 0 
0 0 0 
0 0 0 
0 0 0 
0 0 0 
0 0 0 
0 0 0 
0 0 0 
0 0 0 
0 0 0 
0 0 0 
0 0 0 
0 0 0 
0 0 0 
0 0 0 
0 0 0 
0 0 0 
0 0 0 
0 0 0 
0 0 0 
0 0 0 
0 0 0 
0 0 0 
0 0 0 
0 0 0 
0 0 0 
0 0 0 
0 0 0 
0 0 0 
0 0 0 
0 0 0 
0 0 0 
0 0 0 
0 0 0 
0 0 0 
0 0 0 
0 0 0 
0 0 0 
0 0 0 
0 0 0 
0 0 0 
0 0 0 
0 0 0 
0 0 0 
0 0 0 
0 0 0 
0 0 0 
0 0 0 
0 0 0 
0 0 0 
0 0 0 
0 0 0 
0 0 0 
0 0 0 
0 0 0 
0 0 0 
0 0 0 
0 0 0 
0 0 0 
0 0 0 
0 0 0 
0 0 0 
0 0 0 
0 0 0 
0 0 0 
0 0 0 
0 0 0 
0 0 0 
0 0 0 
0 0 0 
0 0 0 
0 0 0 
0 0 0 
0 0 0 
0 0 0 
0 0 0 
0 0 0 
0 0 0 
0 0 0 
0 0 0 
0 0 0 
0 0 0 
0 0 0 
0 0 0 
0 0 0 
0 0 0 
0 0 0 
0 0 0 
0 0 0 
0 0 0 
0 0 0 
0 0 0 
0 0 0 
0 0 0 
0 0 0 
0 0 0 
0 0 0 
0 0 0 
0 0 0 
0 0 0 
0 0 0 
0 0 0 
0 0 0 
0 0 0 
0 0 0 
0 0 0 
0 0 0 
0 0 0 
0 0 0 
0 0 0 
0 0 0 
0 0 0 
VECTORS velocity double
0 0 0 
0 0 0 
0 0 0 
0 0 0 
0 0 0 
0 0 0 
0 0 0 
0 0 0 
0 0 0 
0 0 0 
0 0 0 
0 0 0 
0 0 0 
0 0 0 
0 0 0 
0 0 0 
0 0 0 
0 0 0 
0 0 0 
0 0 0 
0 0 0 
0 0 0 
0 0 0 
0 0 0 
0 0 0 
0 0 0 
0 0 0 
0 0 0 
-0.64345 1.42038 0 
-0.288012 1.14989 0 
-0.0977499 1.44321 0 
0.20101 1.3669 0 
0.380243 0.647554 0 
0 0 0 
0 0 0 
0 0 0 
0 0 0 
0 0 0 
0 0 0 
0 0 0 
0 0 0 
0 0 0 
0 0 0 
0 0 0 
0 0 0 
0 0 0 
0 0 0 
0 0 0 
0 0 0 
-0.365079 1.10234 0 
-0.115873 1.1491 0 
0.187534 1.3476 0 
0.516884 1.37019 0 
0.43127 1.15886 0 
0.288896 2.28847 0 
0 0 0 
0 0 0 
0 0 0 
0 0 0 
0 0 0 
0 0 0 
0 0 0 
0 0 0 
0 0 0 
0 0 0 
0 0 0 
0 0 0 
0 0 0 
0 0 0 
0 0 0 
-0.0978332 0.303054 0 
-0.00400127 0.885576 0 
-0.0595766 1.01396 0 
-0.133761 1.08141 0 
-0.320735 1.52055 0 
-1.41313 1.6285 0 
0 0 0 
0 0 0 
0 0 0 
0 0 0 
0 0 0 
0 0 0 
0 0 0 
0 0 0 
0 0 0 
0 0 0 
0 0 0 
0 0 0 
0 0 0 
0 0 0 
0 0 0 
-0.563088 -0.433801 0 
-0.497938 0.47879 0 
-0.834317 0.468757 0 
-0.88651 0.879548 0 
-1.0315 1.83781 0 
-0.869829 2.42018 0 
0 0 0 
0 0 0 
0 0 0 
0 0 0 
0 0 0 
0 0 0 
0 0 0 
0 0 0 
0 0 0 
0 0 0 
0 0 0 
0 0 0 
0 0 0 
0 0 0 
0 0 0 
-0.925613 -0.677418 0 
-0.962392 0.375301 0 
-1.01176 0.499602 0 
-1.37055 1.30353 0 
-1.39167 1.63067 0 
0.799368 2.39897 0 
0 0 0 
0 0 0 
0 0 0 
0 0 0 
0 0 0 
0 0 0 
0 0 0 
0 0 0 
0 0 0 
0 0 0 
0 0 0 
0 0 0 
0 0 0 
0 0 0 
0 0 0 
-1.30888 1.97512 0 
-1.13993 0.583976 0 
-1.66095 1.11258 0 
-2.60604 0.865869 0 
-2.37809 2.80883 0 
0 0 0 
0 0 0 
0 0 0 
0 0 0 
0 0 0 
0 0 0 
0 0 0 
0 0 0 
0 0 0 
0 0 0 
0 0 0 
0 0 0 
0 0 0 
0 0 0 
0 0 0 
0 0 0 
0 0 0 
0 0 0 
0 0 0 
0 0 0 
0 0 0 
0 0 0 
0 0 0 
0 0 0 
0 0 0 
0 0 0 
0 0 0 
0 0 0 
0 0 0 
0 0 0 
0 0 0 
0 0 0 
0 0 0 
0 0 0 
0 0 0 
0 0 0 
0 0 0 
0 0 0 
0 0 0 
0 0 0 
0 0 0 
0 0 0 
0 0 0 
0 0 0 
0 0 0 
0 0 0 
0 0 0 
0 0 0 
0 0 0 
0 0 0 
0 0 0 
0 0 0 
0 0 0 
0 0 0 
0 0 0 
0 0 0 
0 0 0 
0 0 0 
0 0 0 
0 0 0 
0 0 0 
0 0 0 
0 0 0 
0 0 0 
0 0 0 
0 0 0 
0 0 0 
0 0 0 
0 0 0 
0 0 0 
0 0 0 
0 0 0 
0 0 0 
0 0 0 
0 0 0 
0 0 0 
0 0 0 
0 0 0 
0 0 0 
0 0 0 
0 0 0 
0 0 0 
0 0 0 
0 0 0 
0 0 0 
0 0 0 
0 0 0 
0 0 0 
0 0 0 
0 0 0 
0 0 0 
0 0 0 
0 0 0 
0 0 0 
0 0 0 
0 0 0 
0 0 0 
0 0 0 
0 0 0 
0 0 0 
0 0 0 
0 0 0 
0 0 0 
0 0 0 
0 0 0 
0 0 0 
0 0 0 
0 0 0 
0 0 0 
0 0 0 
0 0 0 
0 0 0 
0 0 0 
0 0 0 
0 0 0 
0 0 0 
0 0 0 
0 0 0 
0 0 0 
0 0 0 
0 0 0 
0 0 0 
0 0 0 
0 0 0 
0 0 0 
0 0 0 
0 0 0 
0 0 0 
0 0 0 
0 0 0 
0 0 0 
0 0 0 
0 0 0 
0 0 0 
0 0 0 
0 0 0 
0 0 0 
0 0 0 
0 0 0 
0 0 0 
0 0 0 
0 0 0 
0 0 0 
0 0 0 
0 0 0 
0 0 0 
0 0 0 
0 0 0 
0 0 0 
0 0 0 
0 0 0 
0 0 0 
0 0 0 
0 0 0 
0 0 0 
0 0 0 
0 0 0 
0 0 0 
0 0 0 
0 0 0 
0 0 0 
0 0 0 
0 0 0 
0 0 0 
0 0 0 
0 0 0 
0 0 0 
0 0 0 
0 0 0 
0 0 0 
0 0 0 
0 0 0 
0 0 0 
0 0 0 
0 0 0 
0 0 0 
0 0 0 
0 0 0 
0 0 0 
0 0 0 
0 0 0 
0 0 0 
0 0 0 
0 0 0 
0 0 0 
0 0 0 
0 0 0 
0 0 0 
0 0 0 
0 0 0 
0 0 0 
0 0 0 
0 0 0 
0 0 0 
0 0 0 
0 0 0 
0 0 0 
0 0 0 
0 0 0 
0 0 0 
0 0 0 
0 0 0 
0 0 0 
0 0 0 
0 0 0 
0 0 0 
0 0 0 
0 0 0 
0 0 0 
0 0 0 
0 0 0 
0 0 0 
0 0 0 
0 0 0 
0 0 0 
0 0 0 
0 0 0 
0 0 0 
0 0 0 
0 0 0 
0 0 0 
0 0 0 
0 0 0 
0 0 0 
0 0 0 
0 0 0 
0 0 0 
0 0 0 
0 0 0 
0 0 0 
0 0 0 
0 0 0 
0 0 0 
0 0 0 
0 0 0 
0 0 0 
0 0 0 
0 0 0 
0 0 0 
0 0 0 
0 0 0 
0 0 0 
0 0 0 
0 0 0 
0 0 0 
0 0 0 
0 0 0 
0 0 0 
0 0 0 
0 0 0 
0 0 0 
0 0 0 
0 0 0 
0 0 0 
0 0 0 
0 0 0 
0 0 0 
0 0 0 
0 0 0 
0 0 0 
0 0 0 
0 0 0 
0 0 0 
0 0 0 
0 0 0 
0 0 0 
0 0 0 
0 0 0 
0 0 0 
0 0 0 
0 0 0 
0 0 0 
0 0 0 
0 0 0 
0 0 0 
0 0 0 
0 0 0 
0 0 0 
0 0 0 
0 0 0 
0 0 0 
0 0 0 
0 0 0 
0 0 0 
0 0 0 
0 0 0 
0 0 0 
0 0 0 
0 0 0 
0 0 0 
0 0 0 
0 0 0 
0 0 0 
0 0 0 
0 0 0 
0 0 0 
0 0 0 
0 0 0 
0 0 0 
0 0 0 
0 0 0 
0 0 0 
0 0 0 
VECTORS diff_velocity double
0 0 0 
0 0 0 
0 0 0 
0 0 0 
0 0 0 
0 0 0 
0 0 0 
0 0 0 
0 0 0 
0 0 0 
0 0 0 
0 0 0 
0 0 0 
0 0 0 
0 0 0 
0 0 0 
0 0 0 
0 0 0 
0 0 0 
0 0 0 
0 0 0 
0 0 0 
0 0 0 
0 0 0 
0 0 0 
0 0 0 
0 0 0 
0 0 0 
0.219813 0.142118 0 
0.188575 -0.0517514 0 
0.136554 0.0027681 0 
0.180892 0.029784 0 
0.204781 -0.179928 0 
0 0 0 
0 0 0 
0 0 0 
0 0 0 
0 0 0 
0 0 0 
0 0 0 
0 0 0 
0 0 0 
0 0 0 
0 0 0 
0 0 0 
0 0 0 
0 0 0 
0 0 0 
0 0 0 
-0.000120567 0.140993 0 
-0.033203 -0.0103362 0 
0.00723892 -0.0236154 0 
0.0930143 -0.0342794 0 
-0.00304565 0.0981225 0 
-0.0756842 1.16517 0 
0 0 0 
0 0 0 
0 0 0 
0 0 0 
0 0 0 
0 0 0 
0 0 0 
0 0 0 
0 0 0 
0 0 0 
0 0 0 
0 0 0 
0 0 0 
0 0 0 
0 0 0 
-0.0542465 0.136678 0 
-0.0856376 0.0674897 0 
-0.0789239 -0.000952448 0 
-0.0896111 0.0980745 0 
-0.0385085 0.140049 0 
-0.808489 -0.0436484 0 
0 0 0 
0 0 0 
0 0 0 
0 0 0 
0 0 0 
0 0 0 
0 0 0 
0 0 0 
0 0 0 
0 0 0 
0 0 0 
0 0 0 
0 0 0 
0 0 0 
0 0 0 
0.0476545 0.136949 0 
-0.00562976 0.0326115 0 
-0.0120406 -0.128214 0 
-0.0863881 -0.113864 0 
-0.126519 -0.135002 0 
0.0990199 0.142473 0 
0 0 0 
0 0 0 
0 0 0 
0 0 0 
0 0 0 
0 0 0 
0 0 0 
0 0 0 
0 0 0 
0 0 0 
0 0 0 
0 0 0 
0 0 0 
0 0 0 
0 0 0 
-0.0661814 -0.0641572 0 
0.0513806 -0.034297 0 
0.0589139 -0.110897 0 
0.134165 0.0120085 0 
0.0524919 -0.231994 0 
1.64125 0.0822725 0 
0 0 0 
0 0 0 
0 0 0 
0 0 0 
0 0 0 
0 0 0 
0 0 0 
0 0 0 
0 0 0 
0 0 0 
0 0 0 
0 0 0 
0 0 0 
0 0 0 
0 0 0 
0.135864 1.29246 0 
0.283889 -0.128975 0 
-0.0461491 0.337115 0 
-0.45638 -0.793465 0 
-0.559942 0.744666 0 
0 0 0 
0 0 0 
0 0 0 
0 0 0 
0 0 0 
0 0 0 
0 0 0 
0 0 0 
0 0 0 
0 0 0 
0 0 0 
0 0 0 
0 0 0 
0 0 0 
0 0 0 
0 0 0 
0 0 0 
0 0 0 
0 0 0 
0 0 0 
0 0 0 
0 0 0 
0 0 0 
0 0 0 
0 0 0 
0 0 0 
0 0 0 
0 0 0 
0 0 0 
0 0 0 
0 0 0 
0 0 0 
0 0 0 
0 0 0 
0 0 0 
0 0 0 
0 0 0 
0 0 0 
0 0 0 
0 0 0 
0 0 0 
0 0 0 
0 0 0 
0 0 0 
0 0 0 
0 0 0 
0 0 0 
0 0 0 
0 0 0 
0 0 0 
0 0 0 
0 0 0 
0 0 0 
0 0 0 
0 0 0 
0 0 0 
0 0 0 
0 0 0 
0 0 0 
0 0 0 
0 0 0 
0 0 0 
0 0 0 
0 0 0 
0 0 0 
0 0 0 
0 0 0 
0 0 0 
0 0 0 
0 0 0 
0 0 0 
0 0 0 
0 0 0 
0 0 0 
0 0 0 
0 0 0 
0 0 0 
0 0 0 
0 0 0 
0 0 0 
0 0 0 
0 0 0 
0 0 0 
0 0 0 
0 0 0 
0 0 0 
0 0 0 
0 0 0 
0 0 0 
0 0 0 
0 0 0 
0 0 0 
0 0 0 
0 0 0 
0 0 0 
0 0 0 
0 0 0 
0 0 0 
0 0 0 
0 0 0 
0 0 0 
0 0 0 
0 0 0 
0 0 0 
0 0 0 
0 0 0 
0 0 0 
0 0 0 
0 0 0 
0 0 0 
0 0 0 
0 0 0 
0 0 0 
0 0 0 
0 0 0 
0 0 0 
0 0 0 
0 0 0 
0 0 0 
0 0 0 
0 0 0 
0 0 0 
0 0 0 
0 0 0 
0 0 0 
0 0 0 
0 0 0 
0 0 0 
0 0 0 
0 0 0 
0 0 0 
0 0 0 
0 0 0 
0 0 0 
0 0 0 
0 0 0 
0 0 0 
0 0 0 
0 0 0 
0 0 0 
0 0 0 
0 0 0 
0 0 0 
0 0 0 
0 0 0 
0 0 0 
0 0 0 
0 0 0 
0 0 0 
0 0 0 
0 0 0 
0 0 0 
0 0 0 
0 0 0 
0 0 0 
0 0 0 
0 0 0 
0 0 0 
0 0 0 
0 0 0 
0 0 0 
0 0 0 
0 0 0 
0 0 0 
0 0 0 
0 0 0 
0 0 0 
0 0 0 
0 0 0 
0 0 0 
0 0 0 
0 0 0 
0 0 0 
0 0 0 
0 0 0 
0 0 0 
0 0 0 
0 0 0 
0 0 0 
0 0 0 
0 0 0 
0 0 0 
0 0 0 
0 0 0 
0 0 0 
0 0 0 
0 0 0 
0 0 0 
0 0 0 
0 0 0 
0 0 0 
0 0 0 
0 0 0 
0 0 0 
0 0 0 
0 0 0 
0 0 0 
0 0 0 
0 0 0 
0 0 0 
0 0 0 
0 0 0 
0 0 0 
0 0 0 
0 0 0 
0 0 0 
0 0 0 
0 0 0 
0 0 0 
0 0 0 
0 0 0 
0 0 0 
0 0 0 
0 0 0 
0 0 0 
0 0 0 
0 0 0 
0 0 0 
0 0 0 
0 0 0 
0 0 0 
0 0 0 
0 0 0 
0 0 0 
0 0 0 
0 0 0 
0 0 0 
0 0 0 
0 0 0 
0 0 0 
0 0 0 
0 0 0 
0 0 0 
0 0 0 
0 0 0 
0 0 0 
0 0 0 
0 0 0 
0 0 0 
0 0 0 
0 0 0 
0 0 0 
0 0 0 
0 0 0 
0 0 0 
0 0 0 
0 0 0 
0 0 0 
0 0 0 
0 0 0 
0 0 0 
0 0 0 
0 0 0 
0 0 0 
0 0 0 
0 0 0 
0 0 0 
0 0 0 
0 0 0 
0 0 0 
0 0 0 
0 0 0 
0 0 0 
0 0 0 
0 0 0 
0 0 0 
0 0 0 
0 0 0 
0 0 0 
0 0 0 
0 0 0 
0 0 0 
0 0 0 
0 0 0 
0 0 0 
0 0 0 
0 0 0 
0 0 0 
0 0 0 
0 0 0 
0 0 0 
0 0 0 
0 0 0 
0 0 0 
0 0 0 
0 0 0 
0 0 0 
0 0 0 
0 0 0 
0 0 0 
0 0 0 
0 0 0 
0 0 0 
0 0 0 
0 0 0 
0 0 0 
0 0 0 
0 0 0 
0 0 0 
0 0 0 
0 0 0 
0 0 0 
0 0 0 
SCALARS mass double 1
LOOKUP_TABLE default
0
0
0
0
0
0
0
0
0
0
0
0
0
0
0
0
0
0
0
0
0
0
0
0
0
0
0
0
0.317053
0.923369
0.857431
0.893809
0.428011
0
0
0
0
0
0
0
0
0
0
0
0
0
0
0
0
0.698393
2.43353
2.57848
2.55765
1.43587
0.00466602
0
0
0
0
0
0
0
0
0
0
0
0
0
0
0
0.761865
2.51599
2.51007
2.41739
1.50381
0.0275178
0
0
0
0
0
0
0
0
0
0
0
0
0
0
0
0.91533
2.47445
2.42797
2.36061
1.51286
0.0280193
0
0
0
0
0
0
0
0
0
0
0
0
0
0
0
0.660275
1.6188
1.79775
1.83555
1.16694
0.00175878
0
0
0
0
0
0
0
0
0
0
0
0
0
0
0
0.000879495
0.0369025
0.0969211
0.122706
0.0773716
0
0
0
0
0
0
0
0
0
0
0
0
0
0
0
0
0
0
0
0
0
0
0
0
0
0
0
0
0
0
0
0
0
0
0
0
0
0
0
0
0
0
0
0
0
0
0
0
0
0
0
0
0
0
0
0
0
0
0
0
0
0
0
0
0
0
0
0
0
0
0
0
0
0
0
0
0
0
0
0
0
0
0
0
0
0
0
0
0
0
0
0
0
0
0
0
0
0
0
0
0
0
0
0
0
0
0
0
0
0
0
0
0
0
0
0
0
0
0
0
0
0
0
0
0
0
0
0
0
0
0
0
0
0
0
0
0
0
0
0
0
0
0
0
0
0
0
0
0
0
0
0
0
0
0
0
0
0
0
0
0
0
0
0
0
0
0
0
0
0
0
0
0
0
0
0
0
0
0
0
0
0
0
0
0
0
0
0
0
0
0
0
0
0
0
0
0
0
0
0
0
0
0
0
0
0
0
0
0
0
0
0
0
0
0
0
0
0
0
0
0
0
0
0
0
0
0
0
0
0
0
0
0
0
0
0
0
0
0
0
0
0
0
0
0
0
0
0
0
0
0
0
0
0
0
0
0
0
0
0
0
0
0
0
0
0
0
0
0
0
0
0
0
0
0
0
0
0
0
0
0
0
0
0
0
0
0
0
0
0
0
0
0
0
0
0
0
0
0
0
0
0
0
VECTORS momentum double
0 0 0 
0 0 0 
0 0 0 
0 0 0 
0 0 0 
0 0 0 
0 0 0 
0 0 0 
0 0 0 
0 0 0 
0 0 0 
0 0 0 
0 0 0 
0 0 0 
0 0 0 
0 0 0 
0 0 0 
0 0 0 
0 0 0 
0 0 0 
0 0 0 
0 0 0 
0 0 0 
0 0 0 
0 0 0 
0 0 0 
0 0 0 
0 0 0 
-0.204008 0.450336 0 
-0.265941 1.06177 0 
-0.0838138 1.23746 0 
0.179665 1.22175 0 
0.162748 0.277161 0 
0 0 0 
0 0 0 
0 0 0 
0 0 0 
0 0 0 
0 0 0 
0 0 0 
0 0 0 
0 0 0 
0 0 0 
0 0 0 
0 0 0 
0 0 0 
0 0 0 
0 0 0 
0 0 0 
-0.254969 0.769868 0 
-0.281981 2.79637 0 
0.483553 3.47476 0 
1.32201 3.50446 0 
0.619246 1.66397 0 
0.00134799 0.010678 0 
0 0 0 
0 0 0 
0 0 0 
0 0 0 
0 0 0 
0 0 0 
0 0 0 
0 0 0 
0 0 0 
0 0 0 
0 0 0 
0 0 0 
0 0 0 
0 0 0 
0 0 0 
-0.0745357 0.230887 0 
-0.0100672 2.2281 0 
-0.149541 2.5451 0 
-0.323352 2.61419 0 
-0.482326 2.28663 0 
-0.0388863 0.0448128 0 
0 0 0 
0 0 0 
0 0 0 
0 0 0 
0 0 0 
0 0 0 
0 0 0 
0 0 0 
0 0 0 
0 0 0 
0 0 0 
0 0 0 
0 0 0 
0 0 0 
0 0 0 
-0.515412 -0.397071 0 
-1.23212 1.18474 0 
-2.02569 1.13813 0 
-2.0927 2.07627 0 
-1.56051 2.78034 0 
-0.024372 0.0678117 0 
0 0 0 
0 0 0 
0 0 0 
0 0 0 
0 0 0 
0 0 0 
0 0 0 
0 0 0 
0 0 0 
0 0 0 
0 0 0 
0 0 0 
0 0 0 
0 0 0 
0 0 0 
-0.611159 -0.447282 0 
-1.55792 0.607536 0 
-1.8189 0.898163 0 
-2.51572 2.3927 0 
-1.624 1.90289 0 
0.00140591 0.00421926 0 
0 0 0 
0 0 0 
0 0 0 
0 0 0 
0 0 0 
0 0 0 
0 0 0 
0 0 0 
0 0 0 
0 0 0 
0 0 0 
0 0 0 
0 0 0 
0 0 0 
0 0 0 
-0.00115116 0.00173711 0 
-0.0420664 0.0215502 0 
-0.160982 0.107832 0 
-0.319776 0.106247 0 
-0.183997 0.217323 0 
0 0 0 
0 0 0 
0 0 0 
0 0 0 
0 0 0 
0 0 0 
0 0 0 
0 0 0 
0 0 0 
0 0 0 
0 0 0 
0 0 0 
0 0 0 
0 0 0 
0 0 0 
0 0 0 
0 0 0 
0 0 0 
0 0 0 
0 0 0 
0 0 0 
0 0 0 
0 0 0 
0 0 0 
0 0 0 
0 0 0 
0 0 0 
0 0 0 
0 0 0 
0 0 0 
0 0 0 
0 0 0 
0 0 0 
0 0 0 
0 0 0 
0 0 0 
0 0 0 
0 0 0 
0 0 0 
0 0 0 
0 0 0 
0 0 0 
0 0 0 
0 0 0 
0 0 0 
0 0 0 
0 0 0 
0 0 0 
0 0 0 
0 0 0 
0 0 0 
0 0 0 
0 0 0 
0 0 0 
0 0 0 
0 0 0 
0 0 0 
0 0 0 
0 0 0 
0 0 0 
0 0 0 
0 0 0 
0 0 0 
0 0 0 
0 0 0 
0 0 0 
0 0 0 
0 0 0 
0 0 0 
0 0 0 
0 0 0 
0 0 0 
0 0 0 
0 0 0 
0 0 0 
0 0 0 
0 0 0 
0 0 0 
0 0 0 
0 0 0 
0 0 0 
0 0 0 
0 0 0 
0 0 0 
0 0 0 
0 0 0 
0 0 0 
0 0 0 
0 0 0 
0 0 0 
0 0 0 
0 0 0 
0 0 0 
0 0 0 
0 0 0 
0 0 0 
0 0 0 
0 0 0 
0 0 0 
0 0 0 
0 0 0 
0 0 0 
0 0 0 
0 0 0 
0 0 0 
0 0 0 
0 0 0 
0 0 0 
0 0 0 
0 0 0 
0 0 0 
0 0 0 
0 0 0 
0 0 0 
0 0 0 
0 0 0 
0 0 0 
0 0 0 
0 0 0 
0 0 0 
0 0 0 
0 0 0 
0 0 0 
0 0 0 
0 0 0 
0 0 0 
0 0 0 
0 0 0 
0 0 0 
0 0 0 
0 0 0 
0 0 0 
0 0 0 
0 0 0 
0 0 0 
0 0 0 
0 0 0 
0 0 0 
0 0 0 
0 0 0 
0 0 0 
0 0 0 
0 0 0 
0 0 0 
0 0 0 
0 0 0 
0 0 0 
0 0 0 
0 0 0 
0 0 0 
0 0 0 
0 0 0 
0 0 0 
0 0 0 
0 0 0 
0 0 0 
0 0 0 
0 0 0 
0 0 0 
0 0 0 
0 0 0 
0 0 0 
0 0 0 
0 0 0 
0 0 0 
0 0 0 
0 0 0 
0 0 0 
0 0 0 
0 0 0 
0 0 0 
0 0 0 
0 0 0 
0 0 0 
0 0 0 
0 0 0 
0 0 0 
0 0 0 
0 0 0 
0 0 0 
0 0 0 
0 0 0 
0 0 0 
0 0 0 
0 0 0 
0 0 0 
0 0 0 
0 0 0 
0 0 0 
0 0 0 
0 0 0 
0 0 0 
0 0 0 
0 0 0 
0 0 0 
0 0 0 
0 0 0 
0 0 0 
0 0 0 
0 0 0 
0 0 0 
0 0 0 
0 0 0 
0 0 0 
0 0 0 
0 0 0 
0 0 0 
0 0 0 
0 0 0 
0 0 0 
0 0 0 
0 0 0 
0 0 0 
0 0 0 
0 0 0 
0 0 0 
0 0 0 
0 0 0 
0 0 0 
0 0 0 
0 0 0 
0 0 0 
0 0 0 
0 0 0 
0 0 0 
0 0 0 
0 0 0 
0 0 0 
0 0 0 
0 0 0 
0 0 0 
0 0 0 
0 0 0 
0 0 0 
0 0 0 
0 0 0 
0 0 0 
0 0 0 
0 0 0 
0 0 0 
0 0 0 
0 0 0 
0 0 0 
0 0 0 
0 0 0 
0 0 0 
0 0 0 
0 0 0 
0 0 0 
0 0 0 
0 0 0 
0 0 0 
0 0 0 
0 0 0 
0 0 0 
0 0 0 
0 0 0 
0 0 0 
0 0 0 
0 0 0 
0 0 0 
0 0 0 
0 0 0 
0 0 0 
0 0 0 
0 0 0 
0 0 0 
0 0 0 
0 0 0 
0 0 0 
0 0 0 
0 0 0 
0 0 0 
0 0 0 
0 0 0 
0 0 0 
0 0 0 
0 0 0 
0 0 0 
0 0 0 
0 0 0 
0 0 0 
0 0 0 
0 0 0 
0 0 0 
0 0 0 
0 0 0 
0 0 0 
0 0 0 
0 0 0 
0 0 0 
0 0 0 
0 0 0 
0 0 0 
0 0 0 
0 0 0 
0 0 0 
0 0 0 
0 0 0 
0 0 0 
0 0 0 
0 0 0 
0 0 0 
VECTORS force double
0 0 0 
0 0 0 
0 0 0 
0 0 0 
0 0 0 
0 0 0 
0 0 0 
0 0 0 
0 0 0 
0 0 0 
0 0 0 
0 0 0 
0 0 0 
0 0 0 
0 0 0 
0 0 0 
0 0 0 
0 0 0 
0 0 0 
0 0 0 
0 0 0 
0 0 0 
0 0 0 
0 0 0 
0 0 0 
0 0 0 
0 0 0 
0 0 0 
69.6922 45.0589 0 
174.125 -47.7856 0 
117.086 2.37346 0 
161.683 26.6212 0 
87.6488 -77.0114 0 
0 0 0 
0 0 0 
0 0 0 
0 0 0 
0 0 0 
0 0 0 
0 0 0 
0 0 0 
0 0 0 
0 0 0 
0 0 0 
0 0 0 
0 0 0 
0 0 0 
0 0 0 
0 0 0 
-0.0842028 98.4685 0 
-80.8005 -25.1534 0 
18.6654 -60.8919 0 
237.898 -87.6747 0 
-4.37315 140.891 0 
-0.353144 5.43669 0 
0 0 0 
0 0 0 
0 0 0 
0 0 0 
0 0 0 
0 0 0 
0 0 0 
0 0 0 
0 0 0 
0 0 0 
0 0 0 
0 0 0 
0 0 0 
0 0 0 
0 0 0 
-41.3286 104.13 0 
-215.463 169.803 0 
-198.104 -2.39071 0 
-216.625 237.084 0 
-57.9097 210.607 0 
-22.2478 -1.20111 0 
0 0 0 
0 0 0 
0 0 0 
0 0 0 
0 0 0 
0 0 0 
0 0 0 
0 0 0 
0 0 0 
0 0 0 
0 0 0 
0 0 0 
0 0 0 
0 0 0 
0 0 0 
43.6196 125.354 0 
-13.9306 80.6956 0 
-29.2341 -311.3 0 
-203.928 -268.788 0 
-191.406 -204.239 0 
2.77447 3.99199 0 
0 0 0 
0 0 0 
0 0 0 
0 0 0 
0 0 0 
0 0 0 
0 0 0 
0 0 0 
0 0 0 
0 0 0 
0 0 0 
0 0 0 
0 0 0 
0 0 0 
0 0 0 
-43.698 -42.3614 0 
83.1749 -55.5199 0 
105.913 -199.365 0 
246.267 22.0422 0 
61.255 -270.724 0 
2.8866 0.144699 0 
0 0 0 
0 0 0 
0 0 0 
0 0 0 
0 0 0 
0 0 0 
0 0 0 
0 0 0 
0 0 0 
0 0 0 
0 0 0 
0 0 0 
0 0 0 
0 0 0 
0 0 0 