# vtk DataFile Version 3.0
Frame: 54, Time: 0.9
ASCII
DATASET UNSTRUCTURED_GRID
POINTS 64 double
0.433396 0.233106 0 
0.45334 0.217463 0 
0.415843 0.213399 0 
0.435698 0.196152 0 
0.471981 0.201441 0 
0.49298 0.186782 0 
0.454507 0.180811 0 
0.476365 0.167188 0 
0.51519 0.173677 0 
0.53588 0.157625 0 
0.498395 0.153898 0 
0.518636 0.138874 0 
0.558775 0.144465 0 
0.580389 0.130497 0 
0.542152 0.125462 0 
0.563034 0.110271 0 
0.398792 0.195294 0 
0.417414 0.177686 0 
0.381995 0.176881 0 
0.401675 0.158615 0 
0.437727 0.162494 0 
0.459213 0.149284 0 
0.421761 0.143052 0 
0.441628 0.130483 0 
0.480894 0.135943 0 
0.501918 0.121841 0 
0.463601 0.117226 0 
0.486353 0.104501 0 
0.524805 0.107211 0 
0.548027 0.0919849 0 
0.508829 0.0909606 0 
0.531261 0.0742885 0 
0.364566 0.158085 0 
0.383126 0.13932 0 
0.349626 0.137824 0 
0.366789 0.119719 0 
0.403706 0.124931 0 
0.424399 0.110667 0 
0.386851 0.105442 0 
0.406454 0.0919668 0 
0.446322 0.0978306 0 
0.470009 0.0864087 0 
0.428563 0.0802985 0 
0.451508 0.0704785 0 
0.493362 0.0739967 0 
0.516845 0.0580583 0 
0.475406 0.0587611 0 
0.501827 0.0461608 0 
0.33529 0.118702 0 
0.351586 0.0998698 0 
0.315624 0.102491 0 
0.331555 0.0787397 0 
0.370617 0.0866692 0 
0.391779 0.0710099 0 
0.353335 0.0640794 0 
0.376246 0.0494969 0 
0.413621 0.0598607 0 
0.436438 0.0515558 0 
0.397308 0.0390195 0 
0.423328 0.0328731 0 
0.463118 0.041996 0 
0.490647 0.033583 0 
0.452089 0.0277592 0 
0.480674 0.0224015 0 
CELLS 64 128
1 0
1 1
1 2
1 3
1 4
1 5
1 6
1 7
1 8
1 9
1 10
1 11
1 12
1 13
1 14
1 15
1 16
1 17
1 18
1 19
1 20
1 21
1 22
1 23
1 24
1 25
1 26
1 27
1 28
1 29
1 30
1 31
1 32
1 33
1 34
1 35
1 36
1 37
1 38
1 39
1 40
1 41
1 42
1 43
1 44
1 45
1 46
1 47
1 48
1 49
1 50
1 51
1 52
1 53
1 54
1 55
1 56
1 57
1 58
1 59
1 60
1 61
1 62
1 63
CELL_TYPES 64
1
1
1
1
1
1
1
1
1
1
1
1
1
1
1
1
1
1
1
1
1
1
1
1
1
1
1
1
1
1
1
1
1
1
1
1
1
1
1
1
1
1
1
1
1
1
1
1
1
1
1
1
1
1
1
1
1
1
1
1
1
1
1
1
POINT_DATA 64
VECTORS displacement double
-0.0791044 -0.379394 0 
-0.0591597 -0.420037 0 
-0.121657 -0.399101 0 
-0.101802 -0.441348 0 
-0.0405194 -0.461059 0 
-0.0195196 -0.500718 0 
-0.0829928 -0.481689 0 
-0.0611352 -0.520312 0 
0.00268956 -0.538823 0 
0.0233803 -0.579875 0 
-0.0391052 -0.558602 0 
-0.0188641 -0.598626 0 
0.0462752 -0.618035 0 
0.0678894 -0.657003 0 
0.00465203 -0.637038 0 
0.0255342 -0.677229 0 
-0.163708 -0.417206 0 
-0.145086 -0.459814 0 
-0.205505 -0.435619 0 
-0.185825 -0.478885 0 
-0.124773 -0.500006 0 
-0.103287 -0.538216 0 
-0.165739 -0.519448 0 
-0.145872 -0.557017 0 
-0.0816064 -0.576557 0 
-0.0605819 -0.615659 0 
-0.123899 -0.595274 0 
-0.101147 -0.632999 0 
-0.0376954 -0.655289 0 
-0.0144732 -0.695515 0 
-0.078671 -0.671539 0 
-0.0562393 -0.713211 0 
-0.247934 -0.454415 0 
-0.229374 -0.49818 0 
-0.287874 -0.474676 0 
-0.270711 -0.517781 0 
-0.208794 -0.537569 0 
-0.188101 -0.576833 0 
-0.250649 -0.557058 0 
-0.231046 -0.595533 0 
-0.166178 -0.614669 0 
-0.142491 -0.651091 0 
-0.208937 -0.632202 0 
-0.185992 -0.667021 0 
-0.119138 -0.688503 0 
-0.0956545 -0.729442 0 
-0.162094 -0.703739 0 
-0.135673 -0.741339 0 
-0.32721 -0.493798 0 
-0.310914 -0.53763 0 
-0.371876 -0.510009 0 
-0.355945 -0.55876 0 
-0.291883 -0.575831 0 
-0.270721 -0.61649 0 
-0.334165 -0.598421 0 
-0.311254 -0.638003 0 
-0.248879 -0.652639 0 
-0.226062 -0.685944 0 
-0.290192 -0.673481 0 
-0.264172 -0.704627 0 
-0.199382 -0.720504 0 
-0.171853 -0.753917 0 
-0.235411 -0.734741 0 
-0.206826 -0.765099 0 
VECTORS velocity double
-0.353983 -0.151242 0 
-0.777614 -0.277042 0 
-0.608636 -0.252533 0 
-0.421987 -0.420122 0 
-0.458951 -0.0410435 0 
-0.597086 -0.0768197 0 
-0.617523 -0.117048 0 
-0.457796 -0.0947495 0 
-0.605159 0.137408 0 
-0.422943 0.140005 0 
-0.297432 -0.111008 0 
-0.451153 -0.144778 0 
-0.179298 0.362694 0 
-0.0946471 0.121989 0 
0.263097 0.219196 0 
-0.346323 0.117846 0 
-0.56116 -0.0268226 0 
-0.571428 -0.602324 0 
-0.0685977 -0.401772 0 
-0.465275 -0.214323 0 
-0.330938 -0.218291 0 
0.029994 -0.223558 0 
-0.275575 -0.20671 0 
-0.421497 -0.00773361 0 
-0.0448934 0.00516937 0 
-0.141673 0.0646415 0 
-0.302901 -0.243174 0 
-0.0118536 0.0444901 0 
-0.175204 0.160758 0 
0.0109478 0.116688 0 
0.0383796 0.244152 0 
-0.222348 0.234703 0 
-0.142143 0.0574785 0 
-0.205659 -0.39254 0 
-0.664656 0.0695502 0 
-0.711368 0.192028 0 
-0.0461682 -0.505724 0 
-0.410455 -0.134604 0 
-0.7745 -0.281496 0 
-0.398983 0.285762 0 
-0.235214 -0.202691 0 
-0.31995 -0.0146561 0 
-0.289076 -0.42723 0 
-0.566358 0.0660232 0 
-0.0124098 -0.0276578 0 
-0.0464755 -0.192406 0 
-0.00105917 0.39843 0 
-0.453413 0.194081 0 
-0.286488 -0.440665 0 
-0.245304 0.0264441 0 
-0.49677 -0.220743 0 
-0.296947 -0.281009 0 
-0.502351 0.0557817 0 
-0.10305 0.231475 0 
-0.346455 -0.122049 0 
-0.420355 -0.212641 0 
0.06224 -0.0739245 0 
-0.0155198 0.0608947 0 
-0.615648 -0.178945 0 
-0.102324 0.0745432 0 
0.263945 0.304754 0 
0.0617045 0.309787 0 
-0.362706 -0.40731 0 
-0.444314 0.138352 0 
SCALARS mass double 1
LOOKUP_TABLE default
0.625
0.625
0.625
0.625
0.625
0.625
0.625
0.625
0.625
0.625
0.625
0.625
0.625
0.625
0.625
0.625
0.625
0.625
0.625
0.625
0.625
0.625
0.625
0.625
0.625
0.625
0.625
0.625
0.625
0.625
0.625
0.625
0.625
0.625
0.625
0.625
0.625
0.625
0.625
0.625
0.625
0.625
0.625
0.625
0.625
0.625
0.625
0.625
0.625
0.625
0.625
0.625
0.625
0.625
0.625
0.625
0.625
0.625
0.625
0.625
0.625
0.625
0.625
0.625
SCALARS volume double 1
LOOKUP_TABLE default
0.000621581
0.000611752
0.000622713
0.000609962
0.000614151
0.000617513
0.000614854
0.000606242
0.000628512
0.000638581
0.000613544
0.000602217
0.00063745
0.000634794
0.000620563
0.000595749
0.000617019
0.000624391
0.000611581
0.000634134
0.000601319
0.000614291
0.00059304
0.0005863
0.000605886
0.000581006
0.000627552
0.000602435
0.000608538
0.000600364
0.000560683
0.000588966
0.000633386
0.000621592
0.000627672
0.000566618
0.000620502
0.000599736
0.000596802
0.000597881
0.000611601
0.000567331
0.000551224
0.000545638
0.000541258
0.000551718
0.000550363
0.000477336
0.000607526
0.000624145
0.000550735
0.000632662
0.000591177
0.000624334
0.000645948
0.000579788
0.000599796
0.000591858
0.000517579
0.000427243
0.000520113
0.000430215
0.00038496
0.000311838
VECTORS momentum double
-0.22124 -0.0945262 0 
-0.486009 -0.173151 0 
-0.380397 -0.157833 0 
-0.263742 -0.262576 0 
-0.286844 -0.0256522 0 
-0.373179 -0.0480123 0 
-0.385952 -0.0731549 0 
-0.286123 -0.0592185 0 
-0.378224 0.0858802 0 
-0.264339 0.0875034 0 
-0.185895 -0.0693798 0 
-0.281971 -0.090486 0 
-0.112061 0.226684 0 
-0.0591544 0.0762429 0 
0.164436 0.136997 0 
-0.216452 0.0736535 0 
-0.350725 -0.0167641 0 
-0.357143 -0.376452 0 
-0.0428735 -0.251108 0 
-0.290797 -0.133952 0 
-0.206836 -0.136432 0 
0.0187462 -0.139724 0 
-0.172234 -0.129194 0 
-0.263435 -0.0048335 0 
-0.0280584 0.00323086 0 
-0.0885454 0.0404009 0 
-0.189313 -0.151983 0 
-0.00740851 0.0278063 0 
-0.109503 0.100474 0 
0.00684238 0.0729303 0 
0.0239873 0.152595 0 
-0.138967 0.146689 0 
-0.0888396 0.0359241 0 
-0.128537 -0.245337 0 
-0.41541 0.0434689 0 
-0.444605 0.120017 0 
-0.0288551 -0.316078 0 
-0.256534 -0.0841275 0 
-0.484062 -0.175935 0 
-0.249364 0.178602 0 
-0.147009 -0.126682 0 
-0.199969 -0.00916005 0 
-0.180673 -0.267019 0 
-0.353974 0.0412645 0 
-0.00775611 -0.0172861 0 
-0.0290472 -0.120254 0 
-0.000661984 0.249019 0 
-0.283383 0.121301 0 
-0.179055 -0.275415 0 
-0.153315 0.0165276 0 
-0.310481 -0.137965 0 
-0.185592 -0.17563 0 
-0.313969 0.0348635 0 
-0.0644065 0.144672 0 
-0.216534 -0.0762808 0 
-0.262722 -0.132901 0 
0.0389 -0.0462028 0 
-0.00969987 0.0380592 0 
-0.38478 -0.11184 0 
-0.0639525 0.0465895 0 
0.164965 0.190471 0 
0.0385653 0.193617 0 
-0.226691 -0.254569 0 
-0.277697 0.0864698 0 
VECTORS body_force double
0 -9.81 0 
0 -9.81 0 
0 -9.81 0 
0 -9.81 0 
0 -9.81 0 
0 -9.81 0 
0 -9.81 0 
0 -9.81 0 
0 -9.81 0 
0 -9.81 0 
0 -9.81 0 
0 -9.81 0 
0 -9.81 0 
0 -9.81 0 
0 -9.81 0 
0 -9.81 0 
0 -9.81 0 
0 -9.81 0 
0 -9.81 0 
0 -9.81 0 
0 -9.81 0 
0 -9.81 0 
0 -9.81 0 
0 -9.81 0 
0 -9.81 0 
0 -9.81 0 
0 -9.81 0 
0 -9.81 0 
0 -9.81 0 
0 -9.81 0 
0 -9.81 0 
0 -9.81 0 
0 -9.81 0 
0 -9.81 0 
0 -9.81 0 
0 -9.81 0 
0 -9.81 0 
0 -9.81 0 
0 -9.81 0 
0 -9.81 0 
0 -9.81 0 
0 -9.81 0 
0 -9.81 0 
0 -9.81 0 
0 -9.81 0 
0 -9.81 0 
0 -9.81 0 
0 -9.81 0 
0 -9.81 0 
0 -9.81 0 
0 -9.81 0 
0 -9.81 0 
0 -9.81 0 
0 -9.81 0 
0 -9.81 0 
0 -9.81 0 
0 -9.81 0 
0 -9.81 0 
0 -9.81 0 
0 -9.81 0 
0 -9.81 0 
0 -9.81 0 
0 -9.81 0 
0 -9.81 0 
TENSORS cauchy_stress double
-293.844 237.215 0
237.215 -761.05 0
0 0 -316.468

-1534.56 2244.3 0
2244.3 -2585.72 0
0 0 -1236.08

892.142 -178.839 0
-178.839 -1597.26 0
0 0 -211.534

-2044.83 657.315 0
657.315 -2638.78 0
0 0 -1405.08

125.549 1871.94 0
1871.94 -3492.96 0
0 0 -1010.22

1778.7 876.833 0
876.833 -4096.34 0
0 0 -695.293

2396.55 1854.27 0
1854.27 -5544.12 0
0 0 -944.27

1232.84 129.815 0
129.815 -7092.83 0
0 0 -1758

4296.76 225.371 0
225.371 -3219.28 0
0 0 323.247

4899.27 -1544.84 0
-1544.84 -765.382 0
0 0 1240.17

3228.74 1196.53 0
1196.53 -6786.4 0
0 0 -1067.3

1322.42 -1260.06 0
-1260.06 -8463.69 0
0 0 -2142.38

2985.05 -2120.86 0
-2120.86 808.102 0
0 0 1137.95

1525.46 -1998.44 0
-1998.44 1464.57 0
0 0 897.011

2984.3 909.946 0
909.946 -4354.38 0
0 0 -411.024

-2839.23 -2683.92 0
-2683.92 -6378.56 0
0 0 -2765.34

-346.996 726.85 0
726.85 -2124.53 0
0 0 -741.458

3555.82 1863.62 0
1863.62 -3743.18 0
0 0 -56.2072

-860.178 428.385 0
428.385 -3313.78 0
0 0 -1252.19

4108.81 1317.34 0
1317.34 -1318.63 0
0 0 837.054

-748.743 657.148 0
657.148 -6679.49 0
0 0 -2228.47

5273.5 3257.84 0
3257.84 -8597.03 0
0 0 -997.058

-982.263 1594.66 0
1594.66 -9111.87 0
0 0 -3028.24

2989.61 4080.95 0
4080.95 -15282.1 0
0 0 -3687.73

4047.93 2026.54 0
2026.54 -10020.9 0
0 0 -1791.88

1766.92 -3584.72 0
-3584.72 -15803.4 0
0 0 -4210.95

11532.6 3187.2 0
3187.2 -10749.2 0
0 0 235.046

7349.07 979.068 0
979.068 -14420.6 0
0 0 -2121.45

5471.54 -5087.22 0
-5087.22 -10604.7 0
0 0 -1539.95

-2596.44 -3821.73 0
-3821.73 -5137.31 0
0 0 -2320.12

-3024.21 -4348.01 0
-4348.01 -17859.6 0
0 0 -6265.16

-2165.63 -7675.96 0
-7675.96 -9254.13 0
0 0 -3425.93

4401.51 246.209 0
246.209 -1838.36 0
0 0 768.945

544.85 831.762 0
831.762 -1596.27 0
0 0 -315.426

1831.43 -1957.83 0
-1957.83 -1011.02 0
0 0 246.123

-12652.2 1791.85 0
1791.85 -6206.57 0
0 0 -5657.64

4803.45 2074.52 0
2074.52 -6192.5 0
0 0 -416.716

1653.66 2329.82 0
2329.82 -9588.68 0
0 0 -2380.51

-1134.59 2100.36 0
2100.36 -7743.63 0
0 0 -2663.47

2951.13 9134.48 0
9134.48 -11481.9 0
0 0 -2559.24

10323.6 980.015 0
980.015 -14491.4 0
0 0 -1250.31

437.985 1847.72 0
1847.72 -19055 0
0 0 -5585.11

-2012.25 3283.71 0
3283.71 -22143.4 0
0 0 -7246.71

-1296.42 177.22 0
177.22 -24818.2 0
0 0 -7834.38

-3513 -5299.95 0
-5299.95 -24151.5 0
0 0 -8299.36

-5965.25 -12994.9 0
-12994.9 -18018.2 0
0 0 -7195.03

10352.4 1272.68 0
1272.68 -34809 0
0 0 -7336.99

-14818.1 -17171.5 0
-17171.5 -37014.8 0
0 0 -15549.9

-5737.06 1037.81 0
1037.81 283.785 0
0 0 -1635.98

-1770.65 7146.72 0
7146.72 1507.29 0
0 0 -79.01

-20046.9 -8576.35 0
-8576.35 -4279.56 0
0 0 -7297.94

769.719 -2591.83 0
-2591.83 1573.4 0
0 0 702.935

-5815.52 2359.39 0
2359.39 -4883.74 0
0 0 -3209.78

5142.57 1103.92 0
1103.92 -5347.68 0
0 0 -61.5316

7352.51 3049.48 0
3049.48 -1012.59 0
0 0 1901.98

-5848 -313.438 0
-313.438 -8592.35 0
0 0 -4332.1

4080.76 9039.89 0
9039.89 -11996.5 0
0 0 -2374.71

5618.35 5912.76 0
5912.76 -16096.2 0
0 0 -3143.34

-6614.38 2487.14 0
2487.14 -29652.9 0
0 0 -10880.2

-18087.1 3192.93 0
3192.93 -55066.4 0
0 0 -21946.1

6.09518 -2439.84 0
-2439.84 -35334.2 0
0 0 -10598.4

-15524.5 -11339.3 0
-11339.3 -56295.9 0
0 0 -21546.1

-17683.4 -6706.56 0
-6706.56 -75511 0
0 0 -27958.3

-29344.3 -6737.78 0
-6737.78 -104361 0
0 0 -40111.7

TENSORS velocity_gradient double
-1.75695 -0.433582 0
0.347502 1.10687 0
0 0 0

-1.21487 -1.05199 0
2.50286 0.57532 0
0 0 0

-1.22974 0.0375865 0
0.641721 1.36981 0
0 0 0

-0.731362 -3.49563 0
0.939222 -0.639475 0
0 0 0

-0.594291 -2.92195 0
3.71678 -0.583382 0
0 0 0

-0.438746 -4.71453 0
3.6184 -0.0621368 0
0 0 0

-0.422179 -4.74099 0
3.21126 -1.226 0
0 0 0

-0.463914 -4.73605 0
3.00988 -0.582562 0
0 0 0

0.0826666 -5.74304 0
4.17996 0.128971 0
0 0 0

1.15458 -7.10982 0
4.19288 0.112498 0
0 0 0

0.278416 -4.64725 0
3.23761 -0.322258 0
0 0 0

1.38263 -3.54452 0
3.63394 -1.05644 0
0 0 0

1.10337 -2.2996 0
0.784239 0.611876 0
0 0 0

0.0164601 -0.464205 0
0.626322 0.829742 0
0 0 0

1.0555 -2.97622 0
2.9519 0.128412 0
0 0 0

-1.52098 -1.78772 0
0.419359 0.651577 0
0 0 0

-3.24716 -2.30205 0
-1.50848 0.0212536 0
0 0 0

-0.11128 -3.6729 0
1.35261 -0.6763 0
0 0 0

-2.80036 -0.42667 0
-3.28766 -0.247669 0
0 0 0

0.331676 -2.89015 0
0.0817166 -0.359561 0
0 0 0

0.408557 -4.36374 0
1.70259 -1.14141 0
0 0 0

-0.210154 -2.58079 0
2.60304 -1.32522 0
0 0 0

0.965961 0.501435 0
1.66911 -2.72121 0
0 0 0

1.19849 0.135825 0
1.06087 -1.76488 0
0 0 0

0.630424 -2.49889 0
2.64906 -1.77124 0
0 0 0

1.2324 -3.73571 0
2.79261 -1.77276 0
0 0 0

2.12242 -1.11846 0
2.88642 -1.55162 0
0 0 0

3.01748 -2.56523 0
3.03061 -1.84369 0
0 0 0

0.613988 -3.3978 0
2.0314 -0.750538 0
0 0 0

-0.342243 0.632028 0
0.790981 0.711843 0
0 0 0

0.387303 0.568857 0
1.20126 -1.29784 0
0 0 0

0.288057 0.702173 0
0.340155 -0.14112 0
0 0 0

0.0190657 2.18033 0
-3.26722 -0.228775 0
0 0 0

1.18705 0.808392 0
-2.44144 -2.49936 0
0 0 0

0.866071 0.568303 0
0.465789 -0.275025 0
0 0 0

1.06848 0.71009 0
-0.911301 -1.23075 0
0 0 0

1.26519 0.806492 0
0.422208 -3.45093 0
0 0 0

1.56408 0.452607 0
0.104595 -2.59349 0
0 0 0

1.0006 0.653877 0
0.190391 -2.66878 0
0 0 0

1.73998 -2.84687 0
-0.26702 -1.37153 0
0 0 0

2.0211 -1.77703 0
0.510929 -1.92298 0
0 0 0

2.62253 -1.415 0
2.99366 -2.00522 0
0 0 0

1.70679 -2.78427 0
-0.0504839 -1.77998 0
0 0 0

1.62305 -2.4727 0
1.87047 -2.09734 0
0 0 0

1.81227 0.094312 0
2.89023 -1.81256 0
0 0 0

0.191555 0.616596 0
-0.497149 -0.883629 0
0 0 0

0.826472 -1.0681 0
2.76439 -1.96094 0
0 0 0

0.196302 -2.13666 0
0.340489 1.99453 0
0 0 0

0.202005 0.344282 0
2.43077 -0.522891 0
0 0 0

0.662336 -0.135289 0
1.00883 0.371551 0
0 0 0

-0.130732 -0.555268 0
1.9027 -0.100278 0
0 0 0

-0.953364 -1.28235 0
2.83057 2.1703 0
0 0 0

1.5518 -1.54514 0
1.25811 0.12557 0
0 0 0

2.26688 -2.50574 0
2.00035 -0.871532 0
0 0 0

1.7494 -0.864428 0
2.59995 0.95631 0
0 0 0

2.87823 -4.09726 0
2.65847 -0.933393 0
0 0 0

1.64865 -2.8268 0
0.328891 -1.50245 0
0 0 0

1.55561 -3.00262 0
0.415627 -1.14442 0
0 0 0

2.14325 -4.81084 0
1.75807 -0.465667 0
0 0 0

1.06546 -3.82894 0
0.336613 0.017612 0
0 0 0

0.220731 -2.89886 0
2.2592 1.00238 0
0 0 0

0.176251 -2.75418 0
1.80395 2.48325 0
0 0 0

0.391689 -3.01244 0
1.09941 0.49535 0
0 0 0

0.117631 -2.80681 0
1.20397 1.94459 0
0 0 0

SCALARS active double 1
LOOKUP_TABLE default
1
1
1
1
1
1
1
1
1
1
1
1
1
1
1
1
1
1
1
1
1
1
1
1
1
1
1
1
1
1
1
1
1
1
1
1
1
1
1
1
1
1
1
1
1
1
1
1
1
1
1
1
1
1
1
1
1
1
1
1
1
1
1
1
SCALARS extent double 1
LOOKUP_TABLE default
0.0125
0.0125
0.0125
0.0125
0.0125
0.0125
0.0125
0.0125
0.0125
0.0125
0.0125
0.0125
0.0125
0.0125
0.0125
0.0125
0.0125
0.0125
0.0125
0.0125
0.0125
0.0125
0.0125
0.0125
0.0125
0.0125
0.0125
0.0125
0.0125
0.0125
0.0125
0.0125
0.0125
0.0125
0.0125
0.0125
0.0125
0.0125
0.0125
0.0125
0.0125
0.0125
0.0125
0.0125
0.0125
0.0125
0.0125
0.0125
0.0125
0.0125
0.0125
0.0125
0.0125
0.0125
0.0125
0.0125
0.0125
0.0125
0.0125
0.0125
0.0125
0.0125
0.0125
0.0125
SCALARS pressure double 1
LOOKUP_TABLE default
457.121
1785.45
305.549
2029.57
1459.21
1004.31
1363.95
2539.33
-466.912
-1791.35
1541.65
3094.55
-1643.7
-1295.68
593.701
3994.38
1070.99
81.1881
1808.72
-1209.08
3218.9
1440.19
4374.12
5326.73
2588.27
6082.49
-339.511
3064.32
2224.37
3351.29
9049.67
4948.56
-1110.7
455.615
-355.511
8172.14
601.923
3438.51
3847.23
3696.68
1806.01
8067.37
10467.5
11316.3
11988
10392.8
10597.9
22460.9
2363.08
114.126
10541.5
-1015.35
4636.34
88.8789
-2747.3
6257.48
3430.14
4540.38
15715.8
31699.9
15308.8
31122.2
40384.2
57939.1
SCALARS density double 1
LOOKUP_TABLE default
1005.5
1021.66
1003.67
1024.65
1017.66
1012.12
1016.5
1030.94
994.413
978.733
1018.67
1037.83
980.469
984.572
1007.15
1049.1
1012.93
1000.97
1021.94
985.596
1039.38
1017.43
1053.89
1066.01
1031.55
1075.72
995.934
1037.46
1027.05
1041.04
1114.71
1061.18
986.76
1005.48
995.743
1103.04
1007.25
1042.13
1047.25
1045.36
1021.91
1101.65
1133.84
1145.45
1154.72
1132.82
1135.62
1309.35
1028.76
1001.37
1134.85
987.89
1057.21
1001.07
967.57
1077.98
1042.02
1056
1207.55
1462.87
1201.66
1452.76
1623.54
2004.25
