# vtk DataFile Version 3.0
Frame: 49, Time: 0.817
ASCII
DATASET UNSTRUCTURED_GRID
POINTS 64 double
0.491472 0.363212 0 
0.512481 0.347763 0 
0.475381 0.342378 0 
0.496349 0.325702 0 
0.531798 0.330532 0 
0.553038 0.314409 0 
0.515805 0.309813 0 
0.537216 0.294326 0 
0.574209 0.299594 0 
0.59327 0.282029 0 
0.557936 0.278956 0 
0.576768 0.262426 0 
0.615053 0.268592 0 
0.636458 0.255886 0 
0.598963 0.248601 0 
0.619763 0.233875 0 
0.460205 0.323232 0 
0.479951 0.306024 0 
0.445323 0.303948 0 
0.466166 0.286216 0 
0.500695 0.290485 0 
0.521697 0.275663 0 
0.486761 0.269701 0 
0.506518 0.255186 0 
0.541847 0.259253 0 
0.561281 0.242736 0 
0.52682 0.239019 0 
0.547013 0.222674 0 
0.583045 0.227831 0 
0.605572 0.213284 0 
0.567832 0.207659 0 
0.589398 0.192399 0 
0.430334 0.283951 0 
0.449996 0.265524 0 
0.416513 0.263883 0 
0.434849 0.245396 0 
0.471172 0.250681 0 
0.491521 0.233503 0 
0.456608 0.230561 0 
0.475629 0.21455 0 
0.511976 0.217593 0 
0.532744 0.20215 0 
0.495926 0.197677 0 
0.515984 0.183143 0 
0.553051 0.185741 0 
0.574694 0.170883 0 
0.536068 0.166263 0 
0.558749 0.151046 0 
0.402589 0.24543 0 
0.420458 0.226593 0 
0.385094 0.225907 0 
0.402899 0.205683 0 
0.441045 0.211742 0 
0.461759 0.193725 0 
0.424651 0.190135 0 
0.445725 0.172769 0 
0.481437 0.177094 0 
0.501485 0.161158 0 
0.464479 0.157726 0 
0.48577 0.141115 0 
0.52284 0.145208 0 
0.54435 0.130368 0 
0.507661 0.125022 0 
0.528927 0.110809 0 
CELLS 64 128
1 0
1 1
1 2
1 3
1 4
1 5
1 6
1 7
1 8
1 9
1 10
1 11
1 12
1 13
1 14
1 15
1 16
1 17
1 18
1 19
1 20
1 21
1 22
1 23
1 24
1 25
1 26
1 27
1 28
1 29
1 30
1 31
1 32
1 33
1 34
1 35
1 36
1 37
1 38
1 39
1 40
1 41
1 42
1 43
1 44
1 45
1 46
1 47
1 48
1 49
1 50
1 51
1 52
1 53
1 54
1 55
1 56
1 57
1 58
1 59
1 60
1 61
1 62
1 63
CELL_TYPES 64
1
1
1
1
1
1
1
1
1
1
1
1
1
1
1
1
1
1
1
1
1
1
1
1
1
1
1
1
1
1
1
1
1
1
1
1
1
1
1
1
1
1
1
1
1
1
1
1
1
1
1
1
1
1
1
1
1
1
1
1
1
1
1
1
POINT_DATA 64
VECTORS displacement double
-0.0210276 -0.249288 0 
-1.92307e-05 -0.289737 0 
-0.0621187 -0.270122 0 
-0.0411507 -0.311798 0 
0.0192984 -0.331968 0 
0.0405376 -0.373091 0 
-0.0216949 -0.352687 0 
-0.00028373 -0.393174 0 
0.0617088 -0.412906 0 
0.0807699 -0.455471 0 
0.0204361 -0.433544 0 
0.0392684 -0.475074 0 
0.102553 -0.493908 0 
0.123958 -0.531614 0 
0.0614626 -0.513899 0 
0.0822634 -0.553625 0 
-0.102295 -0.289268 0 
-0.0825491 -0.331476 0 
-0.142177 -0.308552 0 
-0.121334 -0.351284 0 
-0.0618053 -0.372015 0 
-0.0408029 -0.411837 0 
-0.100739 -0.392799 0 
-0.0809823 -0.432314 0 
-0.0206525 -0.453247 0 
-0.00121871 -0.494764 0 
-0.0606797 -0.473481 0 
-0.0404872 -0.514826 0 
0.0205453 -0.534669 0 
0.0430721 -0.574216 0 
-0.0196679 -0.554841 0 
0.00189767 -0.595101 0 
-0.182166 -0.328549 0 
-0.162504 -0.371976 0 
-0.220987 -0.348617 0 
-0.202651 -0.392104 0 
-0.141328 -0.411819 0 
-0.120979 -0.453997 0 
-0.180892 -0.431939 0 
-0.161871 -0.47295 0 
-0.100524 -0.494907 0 
-0.0797557 -0.53535 0 
-0.141574 -0.514823 0 
-0.121516 -0.554357 0 
-0.0594491 -0.576759 0 
-0.0378064 -0.616617 0 
-0.101432 -0.596237 0 
-0.0787511 -0.636454 0 
-0.259911 -0.36707 0 
-0.242042 -0.410907 0 
-0.302406 -0.386593 0 
-0.284601 -0.431817 0 
-0.221455 -0.450758 0 
-0.200741 -0.493775 0 
-0.262849 -0.472365 0 
-0.241775 -0.514731 0 
-0.181063 -0.535406 0 
-0.161015 -0.576342 0 
-0.223021 -0.554774 0 
-0.20173 -0.596385 0 
-0.13966 -0.617292 0 
-0.11815 -0.657132 0 
-0.179839 -0.637478 0 
-0.158573 -0.676691 0 
VECTORS velocity double
-1.55197 -1.63961 0 
-1.75629 -1.4003 0 
-1.65811 -2.08161 0 
-1.1731 -1.67463 0 
-1.58372 -1.60322 0 
-1.78654 -1.69554 0 
-1.58604 -1.66573 0 
-1.52636 -1.68503 0 
-1.6144 -1.38322 0 
-1.49372 -1.65338 0 
-1.3275 -1.62902 0 
-1.55813 -1.93522 0 
-1.61415 -1.43751 0 
-1.33717 -1.47828 0 
-0.895356 -1.70586 0 
-1.28469 -1.39399 0 
-1.45944 -1.59962 0 
-1.31106 -1.96422 0 
-1.53291 -1.95814 0 
-1.3925 -1.37609 0 
-1.4257 -1.77244 0 
-1.20681 -1.78834 0 
-1.54987 -1.67802 0 
-1.59373 -1.62042 0 
-1.12345 -1.45435 0 
-1.31774 -1.57226 0 
-1.26996 -1.77204 0 
-1.14177 -1.60459 0 
-1.45331 -1.64594 0 
-1.01105 -1.62157 0 
-1.15993 -1.55586 0 
-1.21433 -1.53647 0 
-1.47042 -1.81047 0 
-0.992688 -1.73293 0 
-1.53287 -1.73639 0 
-1.33361 -1.6386 0 
-1.02582 -2.12572 0 
-1.17603 -1.80043 0 
-1.57453 -2.01104 0 
-1.16974 -1.35032 0 
-0.775327 -1.55972 0 
-1.18539 -1.67757 0 
-1.00145 -1.82818 0 
-1.53042 -1.40731 0 
-0.819331 -1.92768 0 
-0.699569 -1.74528 0 
-0.834195 -1.59454 0 
-1.18019 -1.52128 0 
-1.03494 -1.88675 0 
-1.14383 -1.90909 0 
-0.680324 -1.18719 0 
-1.25862 -2.15 0 
-1.26736 -1.76178 0 
-0.776761 -1.47705 0 
-0.913237 -2.07198 0 
-0.916599 -1.9783 0 
-0.745091 -2.00255 0 
-1.16302 -1.86671 0 
-0.748541 -1.78734 0 
-0.504038 -1.55875 0 
-0.541347 -1.64194 0 
-0.667483 -1.83536 0 
-0.774377 -1.8522 0 
-0.251084 -1.34175 0 
SCALARS mass double 1
LOOKUP_TABLE default
0.625
0.625
0.625
0.625
0.625
0.625
0.625
0.625
0.625
0.625
0.625
0.625
0.625
0.625
0.625
0.625
0.625
0.625
0.625
0.625
0.625
0.625
0.625
0.625
0.625
0.625
0.625
0.625
0.625
0.625
0.625
0.625
0.625
0.625
0.625
0.625
0.625
0.625
0.625
0.625
0.625
0.625
0.625
0.625
0.625
0.625
0.625
0.625
0.625
0.625
0.625
0.625
0.625
0.625
0.625
0.625
0.625
0.625
0.625
0.625
0.625
0.625
0.625
0.625
SCALARS volume double 1
LOOKUP_TABLE default
0.00062524
0.000633126
0.000625784
0.000624213
0.000633263
0.000631381
0.000620585
0.000619404
0.00063161
0.000626804
0.000630455
0.000609353
0.000627424
0.000625813
0.000624219
0.000621118
0.00061399
0.000619536
0.000616827
0.000626991
0.000621082
0.000625391
0.000617822
0.000615209
0.000634647
0.000628249
0.000628746
0.000624845
0.000637999
0.000625551
0.000628626
0.0006135
0.000619609
0.000630444
0.00060935
0.000600488
0.000627336
0.000629268
0.000616726
0.000600652
0.000639256
0.000610817
0.000617998
0.000619987
0.000611648
0.000630338
0.000640804
0.000633851
0.000617944
0.00062639
0.000565402
0.000620741
0.000622344
0.00062725
0.000624585
0.000622363
0.000624646
0.000633945
0.000616272
0.000623588
0.000627054
0.000611005
0.000612284
0.000623349
VECTORS momentum double
-0.969983 -1.02476 0 
-1.09768 -0.875185 0 
-1.03632 -1.301 0 
-0.73319 -1.04664 0 
-0.989824 -1.00201 0 
-1.11659 -1.05971 0 
-0.991277 -1.04108 0 
-0.953978 -1.05314 0 
-1.009 -0.864511 0 
-0.933578 -1.03336 0 
-0.829687 -1.01814 0 
-0.973831 -1.20951 0 
-1.00885 -0.898446 0 
-0.835732 -0.923925 0 
-0.559598 -1.06617 0 
-0.802931 -0.871246 0 
-0.912148 -0.999764 0 
-0.819412 -1.22763 0 
-0.958071 -1.22384 0 
-0.870314 -0.860058 0 
-0.891061 -1.10777 0 
-0.754259 -1.11771 0 
-0.968671 -1.04876 0 
-0.996083 -1.01276 0 
-0.702156 -0.908972 0 
-0.823588 -0.98266 0 
-0.793724 -1.10752 0 
-0.713605 -1.00287 0 
-0.908318 -1.02871 0 
-0.631908 -1.01348 0 
-0.724954 -0.972414 0 
-0.758957 -0.960296 0 
-0.91901 -1.13154 0 
-0.62043 -1.08308 0 
-0.958041 -1.08524 0 
-0.833508 -1.02412 0 
-0.641134 -1.32858 0 
-0.735017 -1.12527 0 
-0.98408 -1.2569 0 
-0.731085 -0.843952 0 
-0.48458 -0.974825 0 
-0.740869 -1.04848 0 
-0.625906 -1.14261 0 
-0.956512 -0.879566 0 
-0.512082 -1.2048 0 
-0.437231 -1.0908 0 
-0.521372 -0.996589 0 
-0.737621 -0.950801 0 
-0.646838 -1.17922 0 
-0.714893 -1.19318 0 
-0.425203 -0.741992 0 
-0.78664 -1.34375 0 
-0.792097 -1.10111 0 
-0.485475 -0.923156 0 
-0.570773 -1.29499 0 
-0.572874 -1.23644 0 
-0.465682 -1.2516 0 
-0.726888 -1.16669 0 
-0.467838 -1.11708 0 
-0.315024 -0.974217 0 
-0.338342 -1.02621 0 
-0.417177 -1.1471 0 
-0.483986 -1.15762 0 
-0.156927 -0.838592 0 
VECTORS body_force double
0 -9.81 0 
0 -9.81 0 
0 -9.81 0 
0 -9.81 0 
0 -9.81 0 
0 -9.81 0 
0 -9.81 0 
0 -9.81 0 
0 -9.81 0 
0 -9.81 0 
0 -9.81 0 
0 -9.81 0 
0 -9.81 0 
0 -9.81 0 
0 -9.81 0 
0 -9.81 0 
0 -9.81 0 
0 -9.81 0 
0 -9.81 0 
0 -9.81 0 
0 -9.81 0 
0 -9.81 0 
0 -9.81 0 
0 -9.81 0 
0 -9.81 0 
0 -9.81 0 
0 -9.81 0 
0 -9.81 0 
0 -9.81 0 
0 -9.81 0 
0 -9.81 0 
0 -9.81 0 
0 -9.81 0 
0 -9.81 0 
0 -9.81 0 
0 -9.81 0 
0 -9.81 0 
0 -9.81 0 
0 -9.81 0 
0 -9.81 0 
0 -9.81 0 
0 -9.81 0 
0 -9.81 0 
0 -9.81 0 
0 -9.81 0 
0 -9.81 0 
0 -9.81 0 
0 -9.81 0 
0 -9.81 0 
0 -9.81 0 
0 -9.81 0 
0 -9.81 0 
0 -9.81 0 
0 -9.81 0 
0 -9.81 0 
0 -9.81 0 
0 -9.81 0 
0 -9.81 0 
0 -9.81 0 
0 -9.81 0 
0 -9.81 0 
0 -9.81 0 
0 -9.81 0 
0 -9.81 0 
TENSORS cauchy_stress double
-123.961 -225.447 0
-225.447 197.869 0
0 0 22.1725

1987.18 -366.297 0
-366.297 497.09 0
0 0 745.281

872.209 -1156.13 0
-1156.13 -630.989 0
0 0 72.3661

-2215.47 -853.802 0
-853.802 1973.29 0
0 0 -72.6563

1371.14 -2087.38 0
-2087.38 1154.57 0
0 0 757.712

1316.47 -752.411 0
-752.411 636.942 0
0 0 586.025

426.484 -1539.25 0
-1539.25 -1789.7 0
0 0 -408.964

-2119.38 -2551.17 0
-2551.17 389.841 0
0 0 -518.863

825.241 -584.616 0
-584.616 1198.05 0
0 0 606.988

-179.26 -1105.81 0
-1105.81 733.547 0
0 0 166.286

20.2515 880.611 0
880.611 1651.05 0
0 0 501.392

-3632.29 -856.241 0
-856.241 -1243.5 0
0 0 -1462.74

1230.74 -392.818 0
-392.818 -486.376 0
0 0 223.309

-597.05 -1016.61 0
-1016.61 846.947 0
0 0 74.9691

-670.524 886.45 0
886.45 430 0
0 0 -72.1571

-554.854 -287.596 0
-287.596 -643.37 0
0 0 -359.467

-701.756 -1139.24 0
-1139.24 -2716.28 0
0 0 -1025.41

584.863 16.902 0
16.902 -2273.34 0
0 0 -506.542

-1608.68 -1465.61 0
-1465.61 -922.702 0
0 0 -759.415

677.529 -1313.5 0
-1313.5 -65.9027 0
0 0 183.488

-1630.88 -1169.64 0
-1169.64 421.439 0
0 0 -362.832

-9.86681 -341.489 0
-341.489 130.279 0
0 0 36.1237

-2032.17 -2902.54 0
-2902.54 -189.09 0
0 0 -666.378

35.9877 1636.99 0
1636.99 -3072.51 0
0 0 -910.956

-677.96 -852.024 0
-852.024 3623.6 0
0 0 883.691

1988.82 -1927.62 0
-1927.62 -991.601 0
0 0 299.166

1715.15 -1218.8 0
-1218.8 -566.067 0
0 0 344.724

120.34 -972.623 0
-972.623 -168.072 0
0 0 -14.3197

3991.09 -1597.68 0
-1597.68 -32.5371 0
0 0 1187.57

-1237.9 -1871.5 0
-1871.5 1407.5 0
0 0 50.8817

1467.01 487.012 0
487.012 -354.646 0
0 0 333.708

-1905.22 -355.71 0
-355.71 -1666.32 0
0 0 -1071.46

160.264 -1847.72 0
-1847.72 -1826.22 0
0 0 -499.788

-356.857 -295.501 0
-295.501 2024.69 0
0 0 500.349

-377.457 -4009.12 0
-4009.12 -4499.33 0
0 0 -1463.04

-4138.89 -2149.23 0
-2149.23 -3555.12 0
0 0 -2308.2

962.518 -2923.07 0
-2923.07 -245.115 0
0 0 215.221

-1357.55 -2792.29 0
-2792.29 2666.31 0
0 0 392.629

-318.435 -1089.81 0
-1089.81 -2244.26 0
0 0 -768.809

-2806.43 3257.18 0
3257.18 -4835.07 0
0 0 -2292.45

3821.27 -769.118 0
-769.118 516.037 0
0 0 1301.19

-6133.98 -1737.41 0
-1737.41 1719.63 0
0 0 -1324.3

-1885.34 -2480.8 0
-2480.8 -281.244 0
0 0 -649.976

-3753.29 669.072 0
669.072 2204.66 0
0 0 -464.588

-4621.55 -1663.38 0
-1663.38 468.87 0
0 0 -1245.8

725.358 -306.307 0
-306.307 910.121 0
0 0 490.643

9984.92 -1216.21 0
-1216.21 -5182.6 0
0 0 1440.69

902.336 -920.338 0
-920.338 1802.04 0
0 0 811.313

-2688.53 -1473.74 0
-1473.74 505.143 0
0 0 -655.016

-641.999 591.551 0
591.551 1069.26 0
0 0 128.179

-15095.1 -6126.22 0
-6126.22 -4177.06 0
0 0 -5781.64

-679.901 -2807.39 0
-2807.39 -635.171 0
0 0 -394.522

-1361.97 -1639.01 0
-1639.01 542.877 0
0 0 -245.727

409.988 -3003.1 0
-3003.1 281.177 0
0 0 207.349

1046.79 -231.056 0
-231.056 -1174.49 0
0 0 -38.311

-388.547 550.151 0
550.151 -424.456 0
0 0 -243.901

1683.93 -1374.94 0
-1374.94 -1792.77 0
0 0 -32.6516

-725.435 -1398.37 0
-1398.37 3458.13 0
0 0 819.807

-1765.81 -573.361 0
-573.361 -938.616 0
0 0 -811.328

681.759 -611.222 0
-611.222 -1116.83 0
0 0 -130.52

721.899 -894.836 0
-894.836 -91.0047 0
0 0 189.268

-6888.76 -964.781 0
-964.781 2533.61 0
0 0 -1306.54

-2105.44 553.783 0
553.783 -1847.59 0
0 0 -1185.91

-354.414 -730.01 0
-730.01 -154.199 0
0 0 -152.584

TENSORS velocity_gradient double
-0.0296179 -1.18893 0
2.46326 1.15034 0
0 0 0

-2.98169 -2.21786 0
2.04984 1.24988 0
0 0 0

-0.176283 -2.09352 0
2.60656 0.262479 0
0 0 0

-0.939068 -2.09524 0
1.93389 0.995895 0
0 0 0

-2.49098 -2.72992 0
1.93483 1.26859 0
0 0 0

-0.875311 -3.2471 0
0.92114 1.14106 0
0 0 0

-2.06301 -2.39682 0
1.86755 1.21623 0
0 0 0

-1.64722 -4.25707 0
1.82365 0.0594545 0
0 0 0

-0.275867 -4.28921 0
1.11736 0.470361 0
0 0 0

-0.19987 -4.5478 0
0.990638 0.91362 0
0 0 0

-0.312243 -4.91527 0
0.813626 0.0512554 0
0 0 0

-0.475408 -4.73017 0
0.395984 0.525032 0
0 0 0

0.131744 -3.71928 0
2.69943 0.452077 0
0 0 0

-0.48576 -2.68585 0
3.18534 -0.361117 0
0 0 0

-0.605534 -3.88557 0
1.85287 0.191739 0
0 0 0

-0.348367 -3.90579 0
3.62238 -0.805262 0
0 0 0

-0.241797 -2.16818 0
1.84357 -0.394823 0
0 0 0

-0.300017 -2.1016 0
1.14432 0.404879 0
0 0 0

0.15651 -2.32758 0
1.04698 -1.14451 0
0 0 0

-0.216848 -2.75671 0
0.949111 0.039969 0
0 0 0

-1.10041 -3.1964 0
1.51351 -0.254559 0
0 0 0

-0.938819 -3.95447 0
1.78555 -0.238051 0
0 0 0

-0.0664096 -2.94366 0
1.11392 -0.164833 0
0 0 0

-0.138742 -3.3575 0
1.74531 -0.268075 0
0 0 0

-0.295427 -4.74031 0
1.75319 -0.198529 0
0 0 0

-0.702576 -3.82544 0
0.192092 0.312339 0
0 0 0

0.0516528 -4.15028 0
1.49185 0.0581284 0
0 0 0

-0.414269 -3.96391 0
0.924762 0.466265 0
0 0 0

-0.930794 -3.43547 0
0.535945 -0.201463 0
0 0 0

0.348752 -3.42189 0
3.84221 -0.652671 0
0 0 0

-1.24165 -3.67141 0
1.02139 0.166987 0
0 0 0

-1.44433 -4.09702 0
1.18485 0.739314 0
0 0 0

-0.701235 -3.74332 0
0.285663 -0.12354 0
0 0 0

-0.749879 -2.78598 0
0.677378 0.131537 0
0 0 0

-1.95798 -4.61505 0
-0.08534 -0.380884 0
0 0 0

-2.48366 -3.44111 0
-0.0757989 0.840996 0
0 0 0

0.0849577 -3.30417 0
1.32316 -0.0376457 0
0 0 0

0.0965218 -4.40442 0
1.62871 -0.5163 0
0 0 0

0.0902603 -4.48022 0
1.6875 0.195377 0
0 0 0

0.0554346 -4.43909 0
2.01449 -0.190752 0
0 0 0

-0.130281 -4.27719 0
0.940325 -0.326601 0
0 0 0

-0.266508 -4.22202 0
0.570812 0.234604 0
0 0 0

-0.0634775 -4.79393 0
1.87701 -0.0363016 0
0 0 0

-0.483723 -4.93256 0
0.411138 0.313428 0
0 0 0

-1.32649 -4.48165 0
1.00345 0.430295 0
0 0 0

-1.66065 -4.26209 0
0.988475 0.624416 0
0 0 0

-0.694672 -4.68247 0
0.374857 0.356441 0
0 0 0

-1.96528 -5.31786 0
0.947104 -0.761486 0
0 0 0

-3.74332 -2.25769 0
-2.8846 1.85457 0
0 0 0

-1.28448 -2.32193 0
0.89769 2.028 0
0 0 0

-9.98518 -1.93848 0
-16.5214 1.48343 0
0 0 0

-1.88041 -1.1624 0
-1.71947 2.8519 0
0 0 0

-0.1464 -3.89652 0
1.77327 0.816585 0
0 0 0

0.0175186 -5.07655 0
2.42788 0.842156 0
0 0 0

0.143982 -7.46072 0
2.31071 0.405489 0
0 0 0

-1.1398 -5.63401 0
1.99061 1.01657 0
0 0 0

0.00251753 -5.15919 0
2.73735 0.602278 0
0 0 0

-0.525037 -5.09246 0
1.19634 0.322204 0
0 0 0

-0.0134936 -5.17334 0
3.09376 0.917227 0
0 0 0

-0.33991 -4.31687 0
2.92834 -1.00725 0
0 0 0

-0.474652 -5.60721 0
0.60488 -1.19371 0
0 0 0

0.313318 -7.69938 0
1.43082 -2.92688 0
0 0 0

1.19498 -4.47551 0
1.65662 -0.838198 0
0 0 0

2.49011 -6.39406 0
2.46556 -2.03653 0
0 0 0

SCALARS active double 1
LOOKUP_TABLE default
1
1
1
1
1
1
1
1
1
1
1
1
1
1
1
1
1
1
1
1
1
1
1
1
1
1
1
1
1
1
1
1
1
1
1
1
1
1
1
1
1
1
1
1
1
1
1
1
1
1
1
1
1
1
1
1
1
1
1
1
1
1
1
1
SCALARS extent double 1
LOOKUP_TABLE default
0.0125
0.0125
0.0125
0.0125
0.0125
0.0125
0.0125
0.0125
0.0125
0.0125
0.0125
0.0125
0.0125
0.0125
0.0125
0.0125
0.0125
0.0125
0.0125
0.0125
0.0125
0.0125
0.0125
0.0125
0.0125
0.0125
0.0125
0.0125
0.0125
0.0125
0.0125
0.0125
0.0125
0.0125
0.0125
0.0125
0.0125
0.0125
0.0125
0.0125
0.0125
0.0125
0.0125
0.0125
0.0125
0.0125
0.0125
0.0125
0.0125
0.0125
0.0125
0.0125
0.0125
0.0125
0.0125
0.0125
0.0125
0.0125
0.0125
0.0125
0.0125
0.0125
0.0125
0.0125
SCALARS pressure double 1
LOOKUP_TABLE default
-32.0269
-1076.52
-104.529
104.948
-1094.47
-846.48
590.726
749.468
-876.76
-240.191
-724.233
2112.84
-322.558
-108.289
104.227
519.231
1481.15
731.672
1096.93
-265.038
524.091
-52.1787
962.547
1315.82
-1276.44
-432.128
-497.934
20.684
-1715.37
-73.4958
-482.023
1547.67
721.916
-722.726
2113.27
3334.07
-310.875
-567.13
1110.5
3311.31
-1879.5
1912.88
938.855
671.071
1799.49
-708.707
-2081
-1171.9
946.134
-185.147
8351.26
569.865
354.939
-299.505
55.3382
352.301
47.1635
-1184.17
1171.92
188.529
-273.388
1887.23
1712.98
220.399
SCALARS density double 1
LOOKUP_TABLE default
999.616
987.165
998.746
1001.26
986.952
989.894
1007.11
1009.03
989.534
997.122
991.347
1025.68
996.137
998.701
1001.25
1006.25
1017.93
1008.82
1013.25
996.825
1006.31
999.374
1011.62
1015.92
984.799
994.828
994.043
1000.25
979.626
999.118
994.232
1018.75
1008.7
991.365
1025.68
1040.82
996.276
993.218
1013.42
1040.54
977.698
1023.22
1011.33
1008.09
1021.83
991.532
975.337
986.036
1011.42
997.781
1105.41
1006.86
1004.27
996.412
1000.66
1004.24
1000.57
985.89
1014.16
1002.26
996.725
1022.91
1020.77
1002.65
