# vtk DataFile Version 3.0
Frame: 46, Time: 0.767
ASCII
DATASET UNSTRUCTURED_GRID
POINTS 64 double
0.382552 0.131887 0 
0.358139 0.126157 0 
0.374816 0.156283 0 
0.349283 0.148896 0 
0.333432 0.117533 0 
0.307872 0.111518 0 
0.326763 0.141167 0 
0.302016 0.136318 0 
0.285 0.106045 0 
0.260821 0.0969533 0 
0.27841 0.131346 0 
0.255269 0.121839 0 
0.233448 0.093509 0 
0.210861 0.0864457 0 
0.228344 0.117198 0 
0.205579 0.110517 0 
0.366404 0.179352 0 
0.341537 0.171459 0 
0.363077 0.202623 0 
0.337991 0.195405 0 
0.319417 0.165578 0 
0.295358 0.162119 0 
0.315205 0.190981 0 
0.291211 0.186795 0 
0.271392 0.15454 0 
0.249179 0.144542 0 
0.26663 0.178885 0 
0.242678 0.171007 0 
0.223898 0.141301 0 
0.198439 0.137709 0 
0.218387 0.166735 0 
0.194577 0.162328 0 
0.358306 0.227312 0 
0.33439 0.21944 0 
0.353998 0.251964 0 
0.329773 0.244824 0 
0.311262 0.214989 0 
0.286647 0.211217 0 
0.307105 0.24025 0 
0.281722 0.237011 0 
0.262847 0.20388 0 
0.240186 0.197764 0 
0.257273 0.228751 0 
0.234888 0.225289 0 
0.215819 0.19201 0 
0.191298 0.186474 0 
0.210341 0.219455 0 
0.18484 0.211755 0 
0.350422 0.275926 0 
0.325203 0.268633 0 
0.342134 0.298941 0 
0.318409 0.293398 0 
0.301332 0.266219 0 
0.275978 0.261062 0 
0.294873 0.292102 0 
0.270826 0.28581 0 
0.250765 0.253737 0 
0.227414 0.251738 0 
0.246183 0.28034 0 
0.221796 0.276869 0 
0.204554 0.244149 0 
0.179779 0.235722 0 
0.19828 0.267527 0 
0.174114 0.260774 0 
CELLS 64 128
1 0
1 1
1 2
1 3
1 4
1 5
1 6
1 7
1 8
1 9
1 10
1 11
1 12
1 13
1 14
1 15
1 16
1 17
1 18
1 19
1 20
1 21
1 22
1 23
1 24
1 25
1 26
1 27
1 28
1 29
1 30
1 31
1 32
1 33
1 34
1 35
1 36
1 37
1 38
1 39
1 40
1 41
1 42
1 43
1 44
1 45
1 46
1 47
1 48
1 49
1 50
1 51
1 52
1 53
1 54
1 55
1 56
1 57
1 58
1 59
1 60
1 61
1 62
1 63
CELL_TYPES 64
1
1
1
1
1
1
1
1
1
1
1
1
1
1
1
1
1
1
1
1
1
1
1
1
1
1
1
1
1
1
1
1
1
1
1
1
1
1
1
1
1
1
1
1
1
1
1
1
1
1
1
1
1
1
1
1
1
1
1
1
1
1
1
1
POINT_DATA 64
VECTORS displacement double
-0.0299479 -0.280613 0 
-0.0543608 -0.311343 0 
-0.0626839 -0.256217 0 
-0.0882169 -0.288604 0 
-0.0790678 -0.344967 0 
-0.104628 -0.375982 0 
-0.110737 -0.321333 0 
-0.135484 -0.351182 0 
-0.1275 -0.406455 0 
-0.151679 -0.440547 0 
-0.15909 -0.381154 0 
-0.182231 -0.415661 0 
-0.179052 -0.468991 0 
-0.201639 -0.501054 0 
-0.209156 -0.445302 0 
-0.231921 -0.476983 0 
-0.0960961 -0.233148 0 
-0.120963 -0.266041 0 
-0.124423 -0.209877 0 
-0.149509 -0.242095 0 
-0.143083 -0.296922 0 
-0.167142 -0.325381 0 
-0.172295 -0.271519 0 
-0.196289 -0.300705 0 
-0.191108 -0.35796 0 
-0.213321 -0.392958 0 
-0.22087 -0.333615 0 
-0.244822 -0.366493 0 
-0.238602 -0.421199 0 
-0.264061 -0.449791 0 
-0.269113 -0.395765 0 
-0.292923 -0.425172 0 
-0.154194 -0.185188 0 
-0.17811 -0.21806 0 
-0.183502 -0.160536 0 
-0.207727 -0.192676 0 
-0.201238 -0.247511 0 
-0.225853 -0.276283 0 
-0.230395 -0.22225 0 
-0.255778 -0.250489 0 
-0.249653 -0.30862 0 
-0.272314 -0.339736 0 
-0.280227 -0.283749 0 
-0.302612 -0.312211 0 
-0.296681 -0.37049 0 
-0.321202 -0.401026 0 
-0.327159 -0.343045 0 
-0.35266 -0.375745 0 
-0.212078 -0.136574 0 
-0.237297 -0.168867 0 
-0.245366 -0.113559 0 
-0.269091 -0.144102 0 
-0.261168 -0.196281 0 
-0.286522 -0.226438 0 
-0.292627 -0.170398 0 
-0.316674 -0.20169 0 
-0.311735 -0.258763 0 
-0.335086 -0.285762 0 
-0.341317 -0.23216 0 
-0.365704 -0.260631 0 
-0.357946 -0.318351 0 
-0.382721 -0.351778 0 
-0.38922 -0.294973 0 
-0.413386 -0.326726 0 
VECTORS velocity double
-0.155701 0.0660546 0 
-0.408203 0.320811 0 
-0.50912 0.270403 0 
-0.397176 0.122387 0 
0.12382 -0.111983 0 
-1.0543 0.226573 0 
-0.180881 -0.447472 0 
-0.764727 0.153646 0 
-0.154942 0.0305662 0 
-0.648679 0.194854 0 
0.299752 0.240641 0 
-0.420697 0.153068 0 
-0.686605 0.256537 0 
-0.27822 0.0461584 0 
-0.703576 0.208099 0 
-0.729971 -0.00879535 0 
-0.295266 -0.0185528 0 
-0.445682 -0.0618335 0 
-0.635572 0.273836 0 
-0.65919 -0.0907116 0 
-0.127346 0.0758119 0 
-0.341564 0.316488 0 
-0.369568 0.265848 0 
-0.769787 0.298038 0 
-0.0810302 0.0256006 0 
-0.293206 -0.336093 0 
-0.718703 0.227354 0 
-0.799385 0.295549 0 
-0.380582 -0.111292 0 
-0.16786 -0.122765 0 
-0.417546 0.622476 0 
-0.647777 -0.0640377 0 
-0.777698 0.360985 0 
-0.71956 0.0652642 0 
-0.903435 0.111144 0 
-0.728849 0.429846 0 
-0.362846 0.181227 0 
-0.466137 -0.0790754 0 
-0.863951 0.117503 0 
-1.16591 -0.119436 0 
-0.251772 -0.108008 0 
-0.269722 0.00565089 0 
-0.959203 -0.017243 0 
-1.07651 -0.0675494 0 
-0.513949 -0.317284 0 
-0.830136 -0.536041 0 
-0.810622 0.207452 0 
-0.615041 0.178132 0 
-0.868802 0.373932 0 
-0.644361 0.372749 0 
-0.860557 0.327973 0 
-0.814276 0.257679 0 
-0.507726 -0.0874138 0 
-0.450997 0.26936 0 
-0.864118 0.198735 0 
-0.567108 0.290197 0 
-0.643122 0.188872 0 
-0.99915 -0.199837 0 
-0.557159 -0.159395 0 
-0.592652 0.135536 0 
-0.33128 -0.0638084 0 
-0.742905 -0.281477 0 
-1.11037 -0.143503 0 
-0.660206 -0.161691 0 
SCALARS mass double 1
LOOKUP_TABLE default
0.625
0.625
0.625
0.625
0.625
0.625
0.625
0.625
0.625
0.625
0.625
0.625
0.625
0.625
0.625
0.625
0.625
0.625
0.625
0.625
0.625
0.625
0.625
0.625
0.625
0.625
0.625
0.625
0.625
0.625
0.625
0.625
0.625
0.625
0.625
0.625
0.625
0.625
0.625
0.625
0.625
0.625
0.625
0.625
0.625
0.625
0.625
0.625
0.625
0.625
0.625
0.625
0.625
0.625
0.625
0.625
0.625
0.625
0.625
0.625
0.625
0.625
0.625
0.625
SCALARS volume double 1
LOOKUP_TABLE default
0.000629108
0.000606832
0.000637495
0.0006327
0.000632229
0.000650401
0.000611807
0.000642037
0.000621519
0.000639022
0.00061071
0.000628544
0.000642377
0.0006134
0.000612166
0.000636819
0.000629475
0.000616338
0.000647448
0.000655917
0.000614544
0.000663785
0.000601041
0.000611951
0.000650259
0.000624239
0.000605836
0.000637193
0.000644802
0.000621238
0.000612116
0.000632795
0.000629865
0.000610782
0.000631794
0.000601593
0.00064298
0.000639932
0.000632168
0.000614884
0.00063763
0.000654489
0.000634606
0.000625542
0.000644207
0.000635827
0.000677892
0.000630624
0.000621215
0.00065406
0.000608683
0.000604037
0.000641919
0.000637391
0.00060527
0.000625764
0.000647022
0.000616963
0.000618772
0.000634693
0.000618687
0.000622377
0.000636207
0.000619386
VECTORS momentum double
-0.0973133 0.0412841 0 
-0.255127 0.200507 0 
-0.3182 0.169002 0 
-0.248235 0.0764918 0 
0.0773878 -0.0699892 0 
-0.658937 0.141608 0 
-0.11305 -0.27967 0 
-0.477954 0.0960289 0 
-0.0968386 0.0191039 0 
-0.405424 0.121784 0 
0.187345 0.150401 0 
-0.262936 0.0956673 0 
-0.429128 0.160336 0 
-0.173888 0.028849 0 
-0.439735 0.130062 0 
-0.456232 -0.0054971 0 
-0.184541 -0.0115955 0 
-0.278551 -0.038646 0 
-0.397232 0.171147 0 
-0.411994 -0.0566947 0 
-0.0795914 0.0473824 0 
-0.213477 0.197805 0 
-0.23098 0.166155 0 
-0.481117 0.186274 0 
-0.0506439 0.0160004 0 
-0.183254 -0.210058 0 
-0.44919 0.142096 0 
-0.499616 0.184718 0 
-0.237864 -0.0695577 0 
-0.104913 -0.0767284 0 
-0.260966 0.389047 0 
-0.404861 -0.0400235 0 
-0.486062 0.225615 0 
-0.449725 0.0407901 0 
-0.564647 0.0694651 0 
-0.455531 0.268654 0 
-0.226778 0.113267 0 
-0.291336 -0.0494221 0 
-0.53997 0.0734395 0 
-0.728695 -0.0746474 0 
-0.157357 -0.0675053 0 
-0.168577 0.00353181 0 
-0.599502 -0.0107769 0 
-0.67282 -0.0422184 0 
-0.321218 -0.198303 0 
-0.518835 -0.335026 0 
-0.506639 0.129657 0 
-0.3844 0.111332 0 
-0.543001 0.233707 0 
-0.402725 0.232968 0 
-0.537848 0.204983 0 
-0.508923 0.161049 0 
-0.317329 -0.0546336 0 
-0.281873 0.16835 0 
-0.540074 0.124209 0 
-0.354442 0.181373 0 
-0.401951 0.118045 0 
-0.624469 -0.124898 0 
-0.348224 -0.0996218 0 
-0.370407 0.0847102 0 
-0.20705 -0.0398802 0 
-0.464315 -0.175923 0 
-0.693983 -0.0896894 0 
-0.412629 -0.101057 0 
VECTORS body_force double
0 -9.81 0 
0 -9.81 0 
0 -9.81 0 
0 -9.81 0 
0 -9.81 0 
0 -9.81 0 
0 -9.81 0 
0 -9.81 0 
0 -9.81 0 
0 -9.81 0 
0 -9.81 0 
0 -9.81 0 
0 -9.81 0 
0 -9.81 0 
0 -9.81 0 
0 -9.81 0 
0 -9.81 0 
0 -9.81 0 
0 -9.81 0 
0 -9.81 0 
0 -9.81 0 
0 -9.81 0 
0 -9.81 0 
0 -9.81 0 
0 -9.81 0 
0 -9.81 0 
0 -9.81 0 
0 -9.81 0 
0 -9.81 0 
0 -9.81 0 
0 -9.81 0 
0 -9.81 0 
0 -9.81 0 
0 -9.81 0 
0 -9.81 0 
0 -9.81 0 
0 -9.81 0 
0 -9.81 0 
0 -9.81 0 
0 -9.81 0 
0 -9.81 0 
0 -9.81 0 
0 -9.81 0 
0 -9.81 0 
0 -9.81 0 
0 -9.81 0 
0 -9.81 0 
0 -9.81 0 
0 -9.81 0 
0 -9.81 0 
0 -9.81 0 
0 -9.81 0 
0 -9.81 0 
0 -9.81 0 
0 -9.81 0 
0 -9.81 0 
0 -9.81 0 
0 -9.81 0 
0 -9.81 0 
0 -9.81 0 
0 -9.81 0 
0 -9.81 0 
0 -9.81 0 
0 -9.81 0 
TENSORS cauchy_stress double
236.209 120.522 0
120.522 1023.71 0
0 0 377.977

-1985.08 -842.408 0
-842.408 -3687.87 0
0 0 -1701.88

869.133 -881.937 0
-881.937 2937.62 0
0 0 1142.03

805.242 2806.77 0
2806.77 1549.46 0
0 0 706.411

1625.01 80.8347 0
80.8347 586.438 0
0 0 663.436

5905.69 -2517.19 0
-2517.19 1755.49 0
0 0 2298.35

-6392.22 3543.54 0
3543.54 2289.44 0
0 0 -1230.83

2477.62 -9523.66 0
-9523.66 2694.32 0
0 0 1551.58

-3863.82 -513.472 0
-513.472 2789.67 0
0 0 -322.245

4763.1 -114.288 0
-114.288 -496.187 0
0 0 1280.07

-5374.68 1836.53 0
1836.53 926.566 0
0 0 -1334.43

1435.62 -312.439 0
-312.439 -348.301 0
0 0 326.194

5164.19 47.6769 0
47.6769 109.718 0
0 0 1582.17

-4143.45 -426.369 0
-426.369 540.582 0
0 0 -1080.86

-587.394 344.806 0
344.806 -3402.7 0
0 0 -1197.03

-1452.38 2436.16 0
2436.16 5055.05 0
0 0 1080.8

-1487.24 -473.934 0
-473.934 2859.12 0
0 0 411.565

1993.3 -462.533 0
-462.533 -4677.31 0
0 0 -805.203

4342.63 -1656.81 0
-1656.81 2443.27 0
0 0 2035.77

6984.26 -675.735 0
-675.735 2300.83 0
0 0 2785.53

-5872.78 1496.68 0
1496.68 2628.46 0
0 0 -973.295

3463.82 -6797.38 0
-6797.38 8114.33 0
0 0 3473.44

-7223 1077.89 0
1077.89 -293.989 0
0 0 -2255.1

-964.116 1182.51 0
1182.51 -3093.53 0
0 0 -1217.29

4314.23 -3682.43 0
-3682.43 3304.91 0
0 0 2285.74

-3963.27 -4065.09 0
-4065.09 3729.09 0
0 0 -70.2555

-6054.05 6997.42 0
6997.42 65.1088 0
0 0 -1796.68

-62.2507 1492.2 0
1492.2 3777.85 0
0 0 1114.68

3636.82 -931.386 0
-931.386 2361.69 0
0 0 1799.55

-1482.61 -1579.31 0
-1579.31 321.671 0
0 0 -348.281

-4617.5 1880.79 0
1880.79 611.894 0
0 0 -1201.68

912.579 -1103.08 0
-1103.08 1471.13 0
0 0 715.112

-2338.22 -1400.7 0
-1400.7 3829.24 0
0 0 447.304

-4476.87 493.553 0
493.553 51.4303 0
0 0 -1327.63

571.246 -2583.15 0
-2583.15 1508.05 0
0 0 623.789

-6041.06 30.8447 0
30.8447 -1299.32 0
0 0 -2202.11

2093.6 -2485.14 0
-2485.14 3360.77 0
0 0 1636.31

2475.11 -6577.24 0
-6577.24 2065.45 0
0 0 1362.17

1446.69 -2562.19 0
-2562.19 746.32 0
0 0 657.902

-924.542 1886.82 0
1886.82 -2213.42 0
0 0 -941.388

3831.25 -1605.39 0
-1605.39 16.2676 0
0 0 1154.25

1402.6 -6219.79 0
-6219.79 7463.25 0
0 0 2659.76

-772.015 3550.16 0
3550.16 3705.34 0
0 0 879.996

-5712.24 -1700.91 0
-1700.91 5878.85 0
0 0 49.9835

1210.01 1311.27 0
1311.27 4610.87 0
0 0 1746.26

731.432 3218.35 0
3218.35 2571.37 0
0 0 990.839

7411.95 6478.72 0
6478.72 8210.5 0
0 0 4686.74

424.891 206.225 0
206.225 1297.95 0
0 0 516.853

-309.275 -1851.56 0
-1851.56 -859.008 0
0 0 -350.485

5198.67 2248.49 0
2248.49 3541.16 0
0 0 2621.95

-3065.63 -559.346 0
-559.346 -2021.57 0
0 0 -1526.16

-2936.69 -868.036 0
-868.036 -3623.97 0
0 0 -1968.2

2998.29 -1075.68 0
-1075.68 2138.33 0
0 0 1540.98

1398.67 -2232.92 0
-2232.92 2376.71 0
0 0 1132.61

-5905.24 -315.526 0
-315.526 -263.498 0
0 0 -1850.62

226.387 2974.22 0
2974.22 8.67528 0
0 0 70.5187

3213.53 -3811.04 0
-3811.04 3445.97 0
0 0 1997.85

-3793.96 -6440.97 0
-6440.97 1304.99 0
0 0 -746.692

-2473.85 684.493 0
684.493 547.823 0
0 0 -577.809

2269.23 2470.45 0
2470.45 690.365 0
0 0 887.879

442.647 -1222.41 0
-1222.41 -2395.04 0
0 0 -585.719

16.4927 -1535.73 0
-1535.73 -825.115 0
0 0 -242.587

1167.29 953.63 0
953.63 2250.41 0
0 0 1025.31

-2745.65 192.575 0
192.575 1010.47 0
0 0 -520.553

TENSORS velocity_gradient double
0.622255 -2.53753 0
2.03031 0.454816 0
0 0 0

0.99792 -0.924611 0
1.8045 -0.514691 0
0 0 0

-0.592467 -4.7482 0
2.62846 1.02993 0
0 0 0

0.114867 -2.13159 0
0.431305 0.151823 0
0 0 0

2.27675 0.617302 0
-1.121 -0.618514 0
0 0 0

2.6434 2.16324 0
-1.0347 -0.254633 0
0 0 0

0.843056 1.02235 0
-1.45846 -0.523173 0
0 0 0

0.964397 2.42128 0
-0.733689 -0.251272 0
0 0 0

0.805589 2.91017 0
-0.100746 -0.54037 0
0 0 0

-0.154161 2.15288 0
-0.202253 -0.690549 0
0 0 0

0.618287 2.85415 0
0.592533 -0.721083 0
0 0 0

0.722306 3.04364 0
0.370209 -1.35139 0
0 0 0

-0.16741 -1.24089 0
1.29266 -0.311154 0
0 0 0

-0.441526 -2.12173 0
1.35951 -0.0963249 0
0 0 0

0.930658 2.06996 0
1.2523 -1.54386 0
0 0 0

0.60748 0.959645 0
1.32193 -1.56693 0
0 0 0

-0.640902 -4.74901 0
2.1682 1.20219 0
0 0 0

0.239208 -4.69159 0
-0.876049 1.27384 0
0 0 0

-0.600551 -4.43889 0
2.00437 2.63422 0
0 0 0

0.140916 -4.61084 0
-0.0759465 1.27335 0
0 0 0

0.256698 -4.62593 0
-1.07177 0.539041 0
0 0 0

0.477201 -4.59878 0
0.817002 -0.124225 0
0 0 0

0.181409 -4.61379 0
-0.229243 0.403185 0
0 0 0

0.651995 -4.61235 0
1.38128 -0.179819 0
0 0 0

0.488878 -3.62534 0
1.12501 -0.411592 0
0 0 0

1.43757 2.47552 0
1.13521 -1.38808 0
0 0 0

0.608989 -4.74664 0
1.32308 -0.361553 0
0 0 0

2.01195 -4.66574 0
1.76377 -0.64094 0
0 0 0

2.11656 1.84962 0
1.28399 -1.54975 0
0 0 0

0.870804 0.888585 0
3.46803 -1.27988 0
0 0 0

2.11975 -4.04815 0
1.6692 -1.18273 0
0 0 0

0.19229 -3.67045 0
2.71162 -1.06511 0
0 0 0

-0.198104 -4.39075 0
3.08649 2.99639 0
0 0 0

-0.585479 -3.97701 0
0.875793 1.93103 0
0 0 0

-1.22583 -2.96787 0
2.94693 1.18335 0
0 0 0

-1.53572 -3.5682 0
1.91428 1.73114 0
0 0 0

-0.415708 -3.08898 0
0.691716 0.968172 0
0 0 0

0.797348 -2.71713 0
1.59907 0.3376 0
0 0 0

-1.38381 -2.93234 0
1.7414 0.79833 0
0 0 0

0.966006 -2.74884 0
1.87622 0.28549 0
0 0 0

0.750934 -3.24032 0
1.52473 -0.00947516 0
0 0 0

1.31635 -3.98392 0
2.32178 -0.498759 0
0 0 0

0.912294 -2.90871 0
1.78796 0.0227912 0
0 0 0

0.453537 -2.49318 0
2.47046 -0.0959269 0
0 0 0

1.4754 -3.98547 0
2.23445 -1.23771 0
0 0 0

0.317591 -3.69196 0
0.57518 -0.843917 0
0 0 0

0.640606 -1.69795 0
2.45714 -0.152559 0
0 0 0

0.326493 -1.09766 0
-0.282205 -0.678214 0
0 0 0

-5.65506 -1.55872 0
-0.562299 0.71379 0
0 0 0

-1.56588 -0.526419 0
2.27869 1.54596 0
0 0 0

-0.709119 -0.409224 0
2.44618 4.13426 0
0 0 0

-1.30076 -0.599168 0
2.4479 1.49953 0
0 0 0

-1.09746 -0.606399 0
2.27982 1.35797 0
0 0 0

0.249704 0.900171 0
2.21963 0.937242 0
0 0 0

-1.91094 -0.404977 0
2.74029 1.2762 0
0 0 0

-1.55936 1.27914 0
2.67726 0.841375 0
0 0 0

0.472335 1.29384 0
2.24787 0.415324 0
0 0 0

0.0806601 -0.223276 0
2.49976 0.322341 0
0 0 0

1.46772 2.32193 0
2.41177 0.498717 0
0 0 0

2.03626 0.416441 0
2.37618 0.598141 0
0 0 0

-0.137417 -1.50225 0
2.38185 -0.148681 0
0 0 0

-0.07638 -1.01309 0
0.546684 -0.852221 0
0 0 0

0.383083 -1.36389 0
1.93306 0.600662 0
0 0 0

-0.259292 -1.70722 0
1.36675 -0.0371991 0
0 0 0

SCALARS active double 1
LOOKUP_TABLE default
1
1
1
1
1
1
1
1
1
1
1
1
1
1
1
1
1
1
1
1
1
1
1
1
1
1
1
1
1
1
1
1
1
1
1
1
1
1
1
1
1
1
1
1
1
1
1
1
1
1
1
1
1
1
1
1
1
1
1
1
1
1
1
1
SCALARS extent double 1
LOOKUP_TABLE default
0.0125
0.0125
0.0125
0.0125
0.0125
0.0125
0.0125
0.0125
0.0125
0.0125
0.0125
0.0125
0.0125
0.0125
0.0125
0.0125
0.0125
0.0125
0.0125
0.0125
0.0125
0.0125
0.0125
0.0125
0.0125
0.0125
0.0125
0.0125
0.0125
0.0125
0.0125
0.0125
0.0125
0.0125
0.0125
0.0125
0.0125
0.0125
0.0125
0.0125
0.0125
0.0125
0.0125
0.0125
0.0125
0.0125
0.0125
0.0125
0.0125
0.0125
0.0125
0.0125
0.0125
0.0125
0.0125
0.0125
0.0125
0.0125
0.0125
0.0125
0.0125
0.0125
0.0125
0.0125
SCALARS pressure double 1
LOOKUP_TABLE default
-545.967
2458.28
-1649.59
-1020.37
-958.296
-3319.84
1777.87
-2241.17
465.465
-1848.99
1927.51
-471.17
-2285.36
1561.24
1729.04
-1561.16
-594.483
1163.07
-2940.56
-4023.54
1405.87
-5017.2
3257.36
1758.31
-3301.63
101.48
2595.21
-1610.09
-2599.35
503.072
1735.76
-1032.94
-646.106
1917.69
-901.029
3180.83
-2363.56
-1967.58
-950.303
1359.78
-1667.26
-3841.87
-1271.11
-72.1983
-2522.38
-1431.21
-6769.73
-746.566
506.256
-3787.26
2204.45
2842.96
-2225.87
-1636
2673.12
-101.86
-2885.78
1078.56
834.613
-1282.49
846.039
350.403
-1481
751.91
SCALARS density double 1
LOOKUP_TABLE default
993.47
1029.94
980.4
987.83
988.566
960.945
1021.56
973.464
1005.6
978.056
1023.4
994.362
972.948
1018.91
1020.97
981.441
992.892
1014.05
965.329
952.865
1017.01
941.57
1039.86
1021.32
961.155
1001.22
1031.63
980.864
969.289
1006.06
1021.05
987.681
992.277
1023.28
989.246
1038.91
972.036
976.666
988.661
1016.45
980.192
954.944
984.862
999.134
970.185
982.972
921.975
991.081
1006.09
955.57
1026.81
1034.7
973.643
980.559
1032.6
998.778
965.963
1013.03
1010.07
984.728
1010.2
1004.21
982.385
1009.06
