# vtk DataFile Version 3.0
Frame: 25, Time: 0.417
ASCII
DATASET UNSTRUCTURED_GRID
POINTS 64 double
0.686404 0.410215 0 
0.710268 0.401966 0 
0.677412 0.385959 0 
0.702254 0.376665 0 
0.733076 0.395204 0 
0.756625 0.38972 0 
0.726205 0.369886 0 
0.751279 0.36475 0 
0.781201 0.384273 0 
0.807136 0.37885 0 
0.776602 0.359626 0 
0.802172 0.354888 0 
0.83274 0.373217 0 
0.857625 0.366614 0 
0.827296 0.349023 0 
0.852159 0.341157 0 
0.670425 0.361827 0 
0.694612 0.353217 0 
0.663272 0.337501 0 
0.687441 0.328872 0 
0.718603 0.345622 0 
0.743605 0.340694 0 
0.711123 0.321081 0 
0.737117 0.31631 0 
0.769558 0.335475 0 
0.795132 0.330755 0 
0.763514 0.312034 0 
0.789445 0.307086 0 
0.821417 0.324552 0 
0.846105 0.316777 0 
0.814856 0.300534 0 
0.839987 0.292659 0 
0.656959 0.312837 0 
0.680338 0.303734 0 
0.6502 0.287849 0 
0.675355 0.279299 0 
0.705407 0.29773 0 
0.731516 0.291856 0 
0.701224 0.273393 0 
0.725068 0.26799 0 
0.757837 0.287971 0 
0.783563 0.283878 0 
0.751466 0.263687 0 
0.777312 0.258976 0 
0.80822 0.27632 0 
0.832956 0.268044 0 
0.801352 0.252101 0 
0.826866 0.24464 0 
0.645652 0.263153 0 
0.670306 0.255832 0 
0.638523 0.238133 0 
0.662865 0.231377 0 
0.695445 0.248834 0 
0.721447 0.243632 0 
0.688912 0.22457 0 
0.7161 0.218984 0 
0.748238 0.239365 0 
0.772515 0.23268 0 
0.740515 0.21442 0 
0.765039 0.206849 0 
0.796568 0.226161 0 
0.821621 0.221508 0 
0.790713 0.201417 0 
0.817138 0.197198 0 
CELLS 64 128
1 0
1 1
1 2
1 3
1 4
1 5
1 6
1 7
1 8
1 9
1 10
1 11
1 12
1 13
1 14
1 15
1 16
1 17
1 18
1 19
1 20
1 21
1 22
1 23
1 24
1 25
1 26
1 27
1 28
1 29
1 30
1 31
1 32
1 33
1 34
1 35
1 36
1 37
1 38
1 39
1 40
1 41
1 42
1 43
1 44
1 45
1 46
1 47
1 48
1 49
1 50
1 51
1 52
1 53
1 54
1 55
1 56
1 57
1 58
1 59
1 60
1 61
1 62
1 63
CELL_TYPES 64
1
1
1
1
1
1
1
1
1
1
1
1
1
1
1
1
1
1
1
1
1
1
1
1
1
1
1
1
1
1
1
1
1
1
1
1
1
1
1
1
1
1
1
1
1
1
1
1
1
1
1
1
1
1
1
1
1
1
1
1
1
1
1
1
POINT_DATA 64
VECTORS displacement double
0.173904 -0.202285 0 
0.197768 -0.235534 0 
0.139912 -0.226541 0 
0.164754 -0.260835 0 
0.220576 -0.267296 0 
0.244125 -0.29778 0 
0.188705 -0.292614 0 
0.213779 -0.32275 0 
0.268701 -0.328227 0 
0.294636 -0.35865 0 
0.239102 -0.352874 0 
0.264672 -0.382612 0 
0.32024 -0.389283 0 
0.345125 -0.420886 0 
0.289796 -0.413477 0 
0.314659 -0.446343 0 
0.107925 -0.250673 0 
0.132112 -0.284283 0 
0.0757722 -0.274999 0 
0.0999408 -0.308628 0 
0.156103 -0.316878 0 
0.181105 -0.346806 0 
0.123623 -0.341419 0 
0.149617 -0.37119 0 
0.207058 -0.377025 0 
0.232632 -0.406745 0 
0.176014 -0.400466 0 
0.201945 -0.430414 0 
0.258917 -0.437948 0 
0.283605 -0.470723 0 
0.227356 -0.461966 0 
0.252487 -0.494841 0 
0.0444586 -0.299663 0 
0.0678385 -0.333766 0 
0.0127003 -0.324651 0 
0.0378548 -0.358201 0 
0.0929066 -0.36477 0 
0.119016 -0.395644 0 
0.0637239 -0.389107 0 
0.0875683 -0.41951 0 
0.145337 -0.424529 0 
0.171063 -0.453622 0 
0.113966 -0.448813 0 
0.139812 -0.478524 0 
0.19572 -0.48618 0 
0.220456 -0.519456 0 
0.163852 -0.510399 0 
0.189366 -0.54286 0 
-0.0168481 -0.349347 0 
0.00780637 -0.381668 0 
-0.0489768 -0.374367 0 
-0.0246351 -0.406123 0 
0.0329448 -0.413666 0 
0.0589469 -0.443868 0 
0.00141203 -0.43793 0 
0.0285997 -0.468516 0 
0.0857378 -0.473135 0 
0.110015 -0.50482 0 
0.0530146 -0.49808 0 
0.0775393 -0.530651 0 
0.134068 -0.536339 0 
0.159121 -0.565992 0 
0.103213 -0.561083 0 
0.129638 -0.590302 0 
VECTORS velocity double
3.67886 2.46822 0 
3.82876 1.45944 0 
2.1892 2.716 0 
2.06181 1.31465 0 
3.42503 1.29848 0 
3.35536 1.00356 0 
1.58053 1.23923 0 
1.74835 0.548152 0 
3.16187 -0.221969 0 
3.11426 -1.23501 0 
2.08878 -0.351456 0 
2.21987 -0.929688 0 
3.23127 -0.88706 0 
3.22506 -2.12763 0 
2.13517 -0.847284 0 
2.00144 -2.16911 0 
2.37425 2.99996 0 
2.15181 1.41251 0 
2.03233 3.07457 0 
1.76169 1.45968 0 
1.9709 2.09089 0 
2.30685 1.33581 0 
1.47897 1.97896 0 
1.54689 1.65303 0 
2.44084 0.199678 0 
2.39343 -0.235289 0 
1.58556 0.116631 0 
1.76628 -0.401138 0 
2.09086 -0.345401 0 
1.4667 -1.99491 0 
1.7512 -0.400354 0 
1.23534 -2.31148 0 
1.81701 2.48194 0 
1.4803 1.33199 0 
1.74618 2.70452 0 
1.4792 1.61979 0 
1.35701 1.63335 0 
1.19497 1.8191 0 
1.49779 1.51163 0 
1.32393 1.693 0 
1.63255 0.213514 0 
1.56088 -0.660143 0 
1.52778 0.031358 0 
1.56147 -0.680894 0 
1.13126 -0.795559 0 
1.02009 -2.27618 0 
0.972021 -0.522337 0 
0.81491 -1.70359 0 
1.74711 3.10575 0 
1.47065 1.71857 0 
0.38271 3.15323 0 
0.270613 1.9782 0 
1.46321 1.56037 0 
1.43916 1.76685 0 
-0.216199 2.08679 0 
-0.634279 1.43116 0 
1.42154 0.940244 0 
1.10181 0.316041 0 
-0.871553 0.441287 0 
-0.712782 -0.180095 0 
0.850833 0.13559 0 
0.770362 -1.27104 0 
-0.750719 -0.412113 0 
-0.794624 -1.70509 0 
SCALARS mass double 1
LOOKUP_TABLE default
0.625
0.625
0.625
0.625
0.625
0.625
0.625
0.625
0.625
0.625
0.625
0.625
0.625
0.625
0.625
0.625
0.625
0.625
0.625
0.625
0.625
0.625
0.625
0.625
0.625
0.625
0.625
0.625
0.625
0.625
0.625
0.625
0.625
0.625
0.625
0.625
0.625
0.625
0.625
0.625
0.625
0.625
0.625
0.625
0.625
0.625
0.625
0.625
0.625
0.625
0.625
0.625
0.625
0.625
0.625
0.625
0.625
0.625
0.625
0.625
0.625
0.625
0.625
0.625
SCALARS volume double 1
LOOKUP_TABLE default
0.000636833
0.000629182
0.000614775
0.000635306
0.000607987
0.000611581
0.000623025
0.000639526
0.000627421
0.000632682
0.000644643
0.000623768
0.000640449
0.000648101
0.00060947
0.000638762
0.00062799
0.000616268
0.000647954
0.000627105
0.000625559
0.000646211
0.000618829
0.000650556
0.000611601
0.000654091
0.000657778
0.000619719
0.000633745
0.000614447
0.000642678
0.000626192
0.00061705
0.000641724
0.000638267
0.000653088
0.000609097
0.000656607
0.000616415
0.000613411
0.000641921
0.000606676
0.000656336
0.000627942
0.000626669
0.000609269
0.000637442
0.000602168
0.000630617
0.000628054
0.000644001
0.000620031
0.000653079
0.000641429
0.000650971
0.000634498
0.000639112
0.000648467
0.000653129
0.00064121
0.00063456
0.000617869
0.000631989
0.000638036
VECTORS momentum double
2.29929 1.54264 0 
2.39298 0.912152 0 
1.36825 1.6975 0 
1.28863 0.821656 0 
2.14064 0.811551 0 
2.0971 0.627228 0 
0.987829 0.774521 0 
1.09272 0.342595 0 
1.97617 -0.13873 0 
1.94641 -0.771881 0 
1.30548 -0.21966 0 
1.38742 -0.581055 0 
2.01955 -0.554412 0 
2.01567 -1.32977 0 
1.33448 -0.529553 0 
1.2509 -1.35569 0 
1.4839 1.87498 0 
1.34488 0.882817 0 
1.2702 1.92161 0 
1.10106 0.912301 0 
1.23181 1.30681 0 
1.44178 0.834883 0 
0.924358 1.23685 0 
0.966807 1.03315 0 
1.52553 0.124799 0 
1.4959 -0.147055 0 
0.990973 0.0728946 0 
1.10393 -0.250711 0 
1.30679 -0.215876 0 
0.916685 -1.24682 0 
1.0945 -0.250221 0 
0.77209 -1.44468 0 
1.13563 1.55121 0 
0.92519 0.832496 0 
1.09136 1.69032 0 
0.924499 1.01237 0 
0.848131 1.02084 0 
0.746854 1.13694 0 
0.936119 0.944768 0 
0.827459 1.05813 0 
1.02034 0.133446 0 
0.975548 -0.41259 0 
0.954863 0.0195987 0 
0.975916 -0.425559 0 
0.707035 -0.497224 0 
0.637554 -1.42261 0 
0.607513 -0.326461 0 
0.509319 -1.06475 0 
1.09194 1.9411 0 
0.919154 1.07411 0 
0.239194 1.97077 0 
0.169133 1.23637 0 
0.914506 0.975232 0 
0.899477 1.10428 0 
-0.135125 1.30425 0 
-0.396425 0.894472 0 
0.888462 0.587652 0 
0.688634 0.197526 0 
-0.544721 0.275804 0 
-0.445489 -0.11256 0 
0.53177 0.0847436 0 
0.481476 -0.794403 0 
-0.469199 -0.257571 0 
-0.49664 -1.06568 0 
VECTORS body_force double
0 -9.81 0 
0 -9.81 0 
0 -9.81 0 
0 -9.81 0 
0 -9.81 0 
0 -9.81 0 
0 -9.81 0 
0 -9.81 0 
0 -9.81 0 
0 -9.81 0 
0 -9.81 0 
0 -9.81 0 
0 -9.81 0 
0 -9.81 0 
0 -9.81 0 
0 -9.81 0 
0 -9.81 0 
0 -9.81 0 
0 -9.81 0 
0 -9.81 0 
0 -9.81 0 
0 -9.81 0 
0 -9.81 0 
0 -9.81 0 
0 -9.81 0 
0 -9.81 0 
0 -9.81 0 
0 -9.81 0 
0 -9.81 0 
0 -9.81 0 
0 -9.81 0 
0 -9.81 0 
0 -9.81 0 
0 -9.81 0 
0 -9.81 0 
0 -9.81 0 
0 -9.81 0 
0 -9.81 0 
0 -9.81 0 
0 -9.81 0 
0 -9.81 0 
0 -9.81 0 
0 -9.81 0 
0 -9.81 0 
0 -9.81 0 
0 -9.81 0 
0 -9.81 0 
0 -9.81 0 
0 -9.81 0 
0 -9.81 0 
0 -9.81 0 
0 -9.81 0 
0 -9.81 0 
0 -9.81 0 
0 -9.81 0 
0 -9.81 0 
0 -9.81 0 
0 -9.81 0 
0 -9.81 0 
0 -9.81 0 
0 -9.81 0 
0 -9.81 0 
0 -9.81 0 
0 -9.81 0 
TENSORS cauchy_stress double
1851.7 1503.61 0
1503.61 1755.19 0
0 0 1082.07

-1244.38 921.786 0
921.786 2526.97 0
0 0 384.776

1917.58 1515.23 0
1515.23 -5089.64 0
0 0 -951.619

-454.113 -4478.61 0
-4478.61 3599.41 0
0 0 943.588

-6130.68 2130.56 0
2130.56 823.461 0
0 0 -1592.17

-3527.65 929.99 0
929.99 -646.286 0
0 0 -1252.18

887.894 3691.83 0
3691.83 -1496.63 0
0 0 -182.62

3144.36 610.22 0
610.22 1273.92 0
0 0 1325.48

3180.04 -720.296 0
-720.296 -2436.49 0
0 0 223.065

4611.45 304.346 0
304.346 -2262.05 0
0 0 704.82

3181.69 -630.852 0
-630.852 2769.34 0
0 0 1785.31

812.537 -3383.37 0
-3383.37 -1192.07 0
0 0 -113.859

2608.24 -1655.92 0
-1655.92 2087.61 0
0 0 1408.75

1576.15 -359.179 0
-359.179 5403.64 0
0 0 2093.94

-2907.44 -4418.16 0
-4418.16 -1931.28 0
0 0 -1451.62

1760.26 -795.68 0
-795.68 2428.14 0
0 0 1256.52

-688.036 976.82 0
976.82 1605.76 0
0 0 275.318

-1043.95 -2873.55 0
-2873.55 -1661.72 0
0 0 -811.702

3655.66 -1293.99 0
-1293.99 3280.53 0
0 0 2080.86

-3514.76 616.854 0
616.854 4161.43 0
0 0 193.999

-1228.85 3484.61 0
3484.61 1400.66 0
0 0 51.5437

5270.1 1764.59 0
1764.59 1148.12 0
0 0 1925.46

1799.85 -2610.77 0
-2610.77 -3708 0
0 0 -572.446

6804.52 3241.83 0
3241.83 902.449 0
0 0 2312.09

1325.95 837.078 0
837.078 -5493.64 0
0 0 -1250.31

9188.85 2726.03 0
2726.03 -439.973 0
0 0 2624.66

10132.5 3437.81 0
3437.81 -302.587 0
0 0 2948.97

3106.7 -277.644 0
-277.644 -4738.51 0
0 0 -489.543

3527.28 -422.334 0
-422.334 -855.213 0
0 0 801.619

-856.888 -2125.1 0
-2125.1 -2417.76 0
0 0 -982.394

3970.53 -932.325 0
-932.325 1393.42 0
0 0 1609.19

218.461 -1869.7 0
-1869.7 147.952 0
0 0 109.924

-4119.28 -122.905 0
-122.905 1657.35 0
0 0 -738.577

2041.87 -2534.97 0
-2534.97 3036.32 0
0 0 1523.46

2229.65 -2544.07 0
-2544.07 1809.84 0
0 0 1211.85

8422.09 -4156.03 0
-4156.03 31.7532 0
0 0 2536.15

1338.84 -156.051 0
-156.051 -6295.39 0
0 0 -1486.96

8642.51 1714.65 0
1714.65 844.781 0
0 0 2846.19

-3316.27 -1468.22 0
-1468.22 656.424 0
0 0 -797.955

-4063.67 845.77 0
845.77 464.394 0
0 0 -1079.78

5756.3 3391.16 0
3391.16 -619.211 0
0 0 1541.13

-671.496 -672.118 0
-672.118 -5050.82 0
0 0 -1716.7

10282.8 -3297.47 0
-3297.47 -874.772 0
0 0 2822.4

-3205.21 -168.589 0
-168.589 4108.44 0
0 0 270.969

109.669 -2997.28 0
-2997.28 403.252 0
0 0 153.876

-3184.02 -953.372 0
-953.372 -1718.19 0
0 0 -1470.66

2364.12 -956.608 0
-956.608 1426.61 0
0 0 1137.22

1968.9 -2358.16 0
-2358.16 -9125.56 0
0 0 -2147

629.185 9.53263 0
9.53263 1091.39 0
0 0 516.171

1148.62 928.063 0
928.063 -211.171 0
0 0 281.236

2516.5 285.853 0
285.853 3242.94 0
0 0 1727.83

-852.149 -1309.36 0
-1309.36 -682.82 0
0 0 -460.491

5654.28 1287.12 0
1287.12 2797.05 0
0 0 2535.4

9072.79 1723.8 0
1723.8 -4082.87 0
0 0 1496.97

8588.64 -2831.01 0
-2831.01 -759.122 0
0 0 2348.86

4214.03 1151.11 0
1151.11 -1313.44 0
0 0 870.178

3771.13 -67.0444 0
-67.0444 522.654 0
0 0 1288.13

696.169 -210.771 0
-210.771 6392.21 0
0 0 2126.51

2278.14 -1222.24 0
-1222.24 6187.76 0
0 0 2539.77

831.176 306.868 0
306.868 4092.97 0
0 0 1477.25

-1290.88 721.139 0
721.139 4210.25 0
0 0 875.811

-1250.26 -923.958 0
-923.958 -956.572 0
0 0 -662.05

4387.42 -1981.55 0
-1981.55 -2248.84 0
0 0 641.576

2502.02 -2177.8 0
-2177.8 1467.66 0
0 0 1190.91

TENSORS velocity_gradient double
3.22464 12.5434 0
-16.3618 -2.27476 0
0 0 0

0.360377 15.3595 0
-19.7379 0.219349 0
0 0 0

2.16361 16.9807 0
-16.5035 1.33677 0
0 0 0

1.17798 19.4732 0
-18.1453 0.0813997 0
0 0 0

0.187441 18.2028 0
-19.9885 0.631511 0
0 0 0

1.68698 17.0071 0
-27.2054 0.925934 0
0 0 0

1.64267 18.66 0
-20.6718 0.439749 0
0 0 0

2.35574 17.2481 0
-23.7721 0.948986 0
0 0 0

2.17622 15.9977 0
-28.7496 0.113679 0
0 0 0

2.06594 15.1779 0
-20.1577 -0.740207 0
0 0 0

3.17001 16.1658 0
-27.8551 0.265043 0
0 0 0

2.63101 15.1411 0
-23.131 -0.484364 0
0 0 0

2.0042 15.181 0
-18.5603 -1.27721 0
0 0 0

-0.467265 14.7024 0
-12.1342 -2.39728 0
0 0 0

1.5721 15.7238 0
-18.2987 0.720813 0
0 0 0

1.18204 18.937 0
-13.3259 3.46649 0
0 0 0

-0.774881 16.1815 0
-15.0319 1.73701 0
0 0 0

-1.57685 15.2874 0
-14.5135 1.04684 0
0 0 0

-2.54399 8.12095 0
-13.4472 4.37235 0
0 0 0

-2.88545 9.12337 0
-12.8854 2.72316 0
0 0 0

2.72815 9.9808 0
-21.0677 1.44498 0
0 0 0

2.75373 9.58371 0
-21.0075 1.09431 0
0 0 0

2.81826 9.68628 0
-20.6893 1.60019 0
0 0 0

2.83174 9.60357 0
-20.6228 1.19228 0
0 0 0

2.51417 10.7882 0
-27.6086 1.07847 0
0 0 0

2.23247 12.5845 0
-27.6352 1.24811 0
0 0 0

0.857332 10.3817 0
-27.765 1.04008 0
0 0 0

0.560665 12.2061 0
-27.7931 1.21237 0
0 0 0

-1.19246 15.5848 0
-19.4223 2.37684 0
0 0 0

-1.91357 18.7454 0
-19.1544 3.7064 0
0 0 0

-3.8879 13.7564 0
-20.4964 1.30321 0
0 0 0

-4.19034 11.1258 0
-20.4926 -1.16727 0
0 0 0

-3.32119 7.62552 0
-10.9862 4.68142 0
0 0 0

-3.70615 9.36695 0
-11.5319 1.95988 0
0 0 0

-3.50436 12.3697 0
-8.77816 -3.2638 0
0 0 0

-2.73812 10.5723 0
-13.0948 -0.66352 0
0 0 0

1.55114 9.3839 0
-18.9356 1.78037 0
0 0 0

2.65454 9.8673 0
-20.7921 2.99901 0
0 0 0

-0.13844 9.38275 0
-17.5843 1.5231 0
0 0 0

2.06869 9.71553 0
-21.854 2.72393 0
0 0 0

-0.550324 10.6541 0
-27.0877 3.50545 0
0 0 0

-0.709924 11.8683 0
-26.8833 1.95066 0
0 0 0

0.0811717 10.4346 0
-23.8771 3.55742 0
0 0 0

-1.88757 11.5873 0
-25.3754 2.31041 0
0 0 0

-3.42771 12.3889 0
-19.5515 0.480765 0
0 0 0

-3.06166 11.2194 0
-19.1093 -0.932101 0
0 0 0

-2.08104 15.3203 0
-21.4535 0.320378 0
0 0 0

-1.80315 19.3376 0
-18.0147 -1.37887 0
0 0 0

0.150293 12.8259 0
-11.059 -3.8294 0
0 0 0

-1.69514 12.507 0
-15.0761 -0.663471 0
0 0 0

0.219488 14.7062 0
-15.1716 -0.804896 0
0 0 0

-4.36015 18.0268 0
-15.2887 1.11395 0
0 0 0

-1.82048 19.263 0
-15.7526 0.85158 0
0 0 0

0.946715 25.6538 0
-22.7732 1.1296 0
0 0 0

-5.32206 21.9807 0
-15.2121 0.799311 0
0 0 0

-1.3825 25.2094 0
-23.3371 1.02199 0
0 0 0

0.10939 27.8086 0
-23.2341 1.58811 0
0 0 0

-0.403371 26.0062 0
-23.7695 0.462449 0
0 0 0

-1.75778 27.5224 0
-23.4279 1.58196 0
0 0 0

2.471 26.7571 0
-22.1804 0.877539 0
0 0 0

0.13809 23.3673 0
-22.3545 -0.959676 0
0 0 0

-0.0564954 21.2707 0
-17.7205 -1.48333 0
0 0 0

2.21807 21.3116 0
-21.2673 5.39442 0
0 0 0

1.09972 20.8462 0
-16.2656 4.88848 0
0 0 0

SCALARS active double 1
LOOKUP_TABLE default
1
1
1
1
1
1
1
1
1
1
1
1
1
1
1
1
1
1
1
1
1
1
1
1
1
1
1
1
1
1
1
1
1
1
1
1
1
1
1
1
1
1
1
1
1
1
1
1
1
1
1
1
1
1
1
1
1
1
1
1
1
1
1
1
SCALARS extent double 1
LOOKUP_TABLE default
0.0125
0.0125
0.0125
0.0125
0.0125
0.0125
0.0125
0.0125
0.0125
0.0125
0.0125
0.0125
0.0125
0.0125
0.0125
0.0125
0.0125
0.0125
0.0125
0.0125
0.0125
0.0125
0.0125
0.0125
0.0125
0.0125
0.0125
0.0125
0.0125
0.0125
0.0125
0.0125
0.0125
0.0125
0.0125
0.0125
0.0125
0.0125
0.0125
0.0125
0.0125
0.0125
0.0125
0.0125
0.0125
0.0125
0.0125
0.0125
0.0125
0.0125
0.0125
0.0125
0.0125
0.0125
0.0125
0.0125
0.0125
0.0125
0.0125
0.0125
0.0125
0.0125
0.0125
0.0125
SCALARS pressure double 1
LOOKUP_TABLE default
-1562.99
-555.788
1374.56
-1362.96
2299.79
1808.71
263.784
-1914.59
-322.205
-1018.07
-2578.78
164.464
-2034.87
-3024.57
2096.78
-1814.97
-397.681
1172.46
-3005.69
-280.22
-74.452
-2781.23
826.866
-3339.69
1806
-3791.18
-4259.63
707.118
-1157.89
1419.01
-2324.38
-158.779
1066.83
-2200.55
-1750.44
-3663.33
2147.84
-4111.16
1152.6
1559.69
-2226.07
2479.67
-4076.8
-391.4
-222.266
2124.29
-1642.65
3101.22
-745.581
-406.229
-2495.76
665.153
-3662.24
-2162.3
-3392.79
-1256.92
-1860.64
-3071.63
-3668.56
-2133.8
-1265.06
956.295
-926.72
-1720.2
SCALARS density double 1
LOOKUP_TABLE default
981.419
993.353
1016.63
983.777
1027.98
1021.94
1003.17
977.287
996.141
987.857
969.529
1001.98
975.877
964.356
1025.48
978.456
995.239
1014.17
964.574
996.643
999.107
967.176
1009.97
960.716
1021.91
955.525
950.169
1008.52
986.201
1017.17
972.493
998.096
1012.88
973.939
979.214
956.992
1026.11
951.863
1013.93
1018.89
973.641
1030.2
952.256
995.314
997.336
1025.82
980.481
1037.92
991.093
995.137
970.495
1008.01
957.005
974.386
960.104
985.03
977.92
963.811
956.932
974.719
984.934
1011.54
988.941
979.569
