# vtk DataFile Version 3.0
Frame: 11, Time: 0.184
ASCII
DATASET UNSTRUCTURED_GRID
POINTS 64 double
0.5125 0.443719 0 
0.5125 0.468719 0 
0.5375 0.443719 0 
0.5375 0.468719 0 
0.5125 0.493719 0 
0.5125 0.518719 0 
0.5375 0.493719 0 
0.5375 0.518719 0 
0.5125 0.543719 0 
0.5125 0.568719 0 
0.5375 0.543719 0 
0.5375 0.568719 0 
0.5125 0.593719 0 
0.5125 0.618719 0 
0.5375 0.593719 0 
0.5375 0.618719 0 
0.5625 0.443719 0 
0.5625 0.468719 0 
0.5875 0.443719 0 
0.5875 0.468719 0 
0.5625 0.493719 0 
0.5625 0.518719 0 
0.5875 0.493719 0 
0.5875 0.518719 0 
0.5625 0.543719 0 
0.5625 0.568719 0 
0.5875 0.543719 0 
0.5875 0.568719 0 
0.5625 0.593719 0 
0.5625 0.618719 0 
0.5875 0.593719 0 
0.5875 0.618719 0 
0.6125 0.443719 0 
0.6125 0.468719 0 
0.6375 0.443719 0 
0.6375 0.468719 0 
0.6125 0.493719 0 
0.6125 0.518719 0 
0.6375 0.493719 0 
0.6375 0.518719 0 
0.6125 0.543719 0 
0.6125 0.568719 0 
0.6375 0.543719 0 
0.6375 0.568719 0 
0.6125 0.593719 0 
0.6125 0.618719 0 
0.6375 0.593719 0 
0.6375 0.618719 0 
0.6625 0.443719 0 
0.6625 0.468719 0 
0.6875 0.443719 0 
0.6875 0.468719 0 
0.6625 0.493719 0 
0.6625 0.518719 0 
0.6875 0.493719 0 
0.6875 0.518719 0 
0.6625 0.543719 0 
0.6625 0.568719 0 
0.6875 0.543719 0 
0.6875 0.568719 0 
0.6625 0.593719 0 
0.6625 0.618719 0 
0.6875 0.593719 0 
0.6875 0.618719 0 
CELLS 64 128
1 0
1 1
1 2
1 3
1 4
1 5
1 6
1 7
1 8
1 9
1 10
1 11
1 12
1 13
1 14
1 15
1 16
1 17
1 18
1 19
1 20
1 21
1 22
1 23
1 24
1 25
1 26
1 27
1 28
1 29
1 30
1 31
1 32
1 33
1 34
1 35
1 36
1 37
1 38
1 39
1 40
1 41
1 42
1 43
1 44
1 45
1 46
1 47
1 48
1 49
1 50
1 51
1 52
1 53
1 54
1 55
1 56
1 57
1 58
1 59
1 60
1 61
1 62
1 63
CELL_TYPES 64
1
1
1
1
1
1
1
1
1
1
1
1
1
1
1
1
1
1
1
1
1
1
1
1
1
1
1
1
1
1
1
1
1
1
1
1
1
1
1
1
1
1
1
1
1
1
1
1
1
1
1
1
1
1
1
1
1
1
1
1
1
1
1
1
POINT_DATA 64
VECTORS displacement double
-1.45772e-16 -0.168781 0 
-2.50419e-17 -0.168781 0 
-1.11957e-16 -0.168781 0 
-2.21408e-17 -0.168781 0 
4.45169e-17 -0.168781 0 
7.87616e-17 -0.168781 0 
3.50526e-17 -0.168781 0 
6.34797e-17 -0.168781 0 
8.42399e-17 -0.168781 0 
9.40891e-17 -0.168781 0 
7.95939e-17 -0.168781 0 
9.85429e-17 -0.168781 0 
1.32179e-16 -0.168781 0 
1.83006e-16 -0.168781 0 
1.33661e-16 -0.168781 0 
1.82151e-16 -0.168781 0 
-8.62936e-17 -0.168781 0 
-2.17544e-17 -0.168781 0 
-6.87808e-17 -0.168781 0 
-2.38829e-17 -0.168781 0 
2.51545e-17 -0.168781 0 
5.30414e-17 -0.168781 0 
1.48226e-17 -0.168781 0 
4.74469e-17 -0.168781 0 
7.74476e-17 -0.168781 0 
1.03172e-16 -0.168781 0 
7.78011e-17 -0.168781 0 
1.07977e-16 -0.168781 0 
1.36524e-16 -0.168781 0 
1.80523e-16 -0.168781 0 
1.40768e-16 -0.168781 0 
1.78123e-16 -0.168781 0 
-5.29802e-17 -0.168781 0 
-2.73582e-17 -0.168781 0 
-3.8892e-17 -0.168781 0 
-3.21803e-17 -0.168781 0 
3.35001e-18 -0.168781 0 
4.10046e-17 -0.168781 0 
-9.26314e-18 -0.168781 0 
3.37146e-17 -0.168781 0 
7.73149e-17 -0.168781 0 
1.11986e-16 -0.168781 0 
7.5989e-17 -0.168781 0 
1.15199e-16 -0.168781 0 
1.45105e-16 -0.168781 0 
1.76486e-16 -0.168781 0 
1.49536e-16 -0.168781 0 
1.75613e-16 -0.168781 0 
-1.59203e-17 -0.168781 0 
-3.30651e-17 -0.168781 0 
1.59349e-17 -0.168781 0 
-3.00125e-17 -0.168781 0 
-2.0913e-17 -0.168781 0 
2.21729e-17 -0.168781 0 
-3.15995e-17 -0.168781 0 
6.37939e-18 -0.168781 0 
7.31064e-17 -0.168781 0 
1.18451e-16 -0.168781 0 
6.86671e-17 -0.168781 0 
1.2174e-16 -0.168781 0 
1.52538e-16 -0.168781 0 
1.75028e-16 -0.168781 0 
1.5411e-16 -0.168781 0 
1.7473e-16 -0.168781 0 
VECTORS velocity double
-3.69068e-15 -1.81485 0 
-4.20213e-15 -1.81485 0 
-1.63001e-15 -1.81485 0 
-1.4357e-15 -1.81485 0 
-6.44839e-15 -1.81485 0 
1.09551e-14 -1.81485 0 
-7.67783e-16 -1.81485 0 
6.17458e-15 -1.81485 0 
1.72879e-14 -1.81485 0 
7.07317e-15 -1.81485 0 
8.92318e-15 -1.81485 0 
4.00224e-15 -1.81485 0 
-2.78071e-15 -1.81485 0 
4.13746e-15 -1.81485 0 
3.95633e-16 -1.81485 0 
5.86345e-15 -1.81485 0 
-3.1392e-16 -1.81485 0 
2.94599e-16 -1.81485 0 
2.57592e-16 -1.81485 0 
9.88752e-16 -1.81485 0 
1.69619e-15 -1.81485 0 
2.92792e-15 -1.81485 0 
9.4352e-16 -1.81485 0 
1.2151e-15 -1.81485 0 
3.71087e-15 -1.81485 0 
2.02585e-15 -1.81485 0 
1.651e-15 -1.81485 0 
1.14401e-15 -1.81485 0 
1.52695e-15 -1.81485 0 
5.57943e-15 -1.81485 0 
6.1325e-16 -1.81485 0 
3.2854e-15 -1.81485 0 
-2.03681e-16 -1.81485 0 
1.23379e-15 -1.81485 0 
-1.69774e-15 -1.81485 0 
1.0297e-15 -1.81485 0 
2.94497e-16 -1.81485 0 
-3.00073e-16 -1.81485 0 
-2.50882e-16 -1.81485 0 
-1.61758e-15 -1.81485 0 
-4.4376e-16 -1.81485 0 
3.94227e-16 -1.81485 0 
-2.57342e-15 -1.81485 0 
-2.23505e-16 -1.81485 0 
1.04818e-16 -1.81485 0 
1.06211e-15 -1.81485 0 
1.65656e-18 -1.81485 0 
-1.09043e-15 -1.81485 0 
-2.67533e-15 -1.81485 0 
1.27778e-15 -1.81485 0 
-3.13646e-15 -1.81485 0 
1.97802e-15 -1.81485 0 
1.49966e-15 -1.81485 0 
-4.67505e-15 -1.81485 0 
5.54612e-15 -1.81485 0 
-9.47248e-15 -1.81485 0 
-7.70689e-15 -1.81485 0 
-2.06499e-15 -1.81485 0 
-1.58442e-14 -1.81485 0 
-5.13024e-15 -1.81485 0 
1.79498e-15 -1.81485 0 
-1.50205e-15 -1.81485 0 
5.48479e-15 -1.81485 0 
-1.72743e-16 -1.81485 0 
SCALARS mass double 1
LOOKUP_TABLE default
0.625
0.625
0.625
0.625
0.625
0.625
0.625
0.625
0.625
0.625
0.625
0.625
0.625
0.625
0.625
0.625
0.625
0.625
0.625
0.625
0.625
0.625
0.625
0.625
0.625
0.625
0.625
0.625
0.625
0.625
0.625
0.625
0.625
0.625
0.625
0.625
0.625
0.625
0.625
0.625
0.625
0.625
0.625
0.625
0.625
0.625
0.625
0.625
0.625
0.625
0.625
0.625
0.625
0.625
0.625
0.625
0.625
0.625
0.625
0.625
0.625
0.625
0.625
0.625
SCALARS volume double 1
LOOKUP_TABLE default
0.000625
0.000625
0.000625
0.000625
0.000625
0.000625
0.000625
0.000625
0.000625
0.000625
0.000625
0.000625
0.000625
0.000625
0.000625
0.000625
0.000625
0.000625
0.000625
0.000625
0.000625
0.000625
0.000625
0.000625
0.000625
0.000625
0.000625
0.000625
0.000625
0.000625
0.000625
0.000625
0.000625
0.000625
0.000625
0.000625
0.000625
0.000625
0.000625
0.000625
0.000625
0.000625
0.000625
0.000625
0.000625
0.000625
0.000625
0.000625
0.000625
0.000625
0.000625
0.000625
0.000625
0.000625
0.000625
0.000625
0.000625
0.000625
0.000625
0.000625
0.000625
0.000625
0.000625
0.000625
VECTORS momentum double
-2.30668e-15 -1.13428 0 
-2.62633e-15 -1.13428 0 
-1.01876e-15 -1.13428 0 
-8.9731e-16 -1.13428 0 
-4.03024e-15 -1.13428 0 
6.84691e-15 -1.13428 0 
-4.79864e-16 -1.13428 0 
3.85911e-15 -1.13428 0 
1.0805e-14 -1.13428 0 
4.42073e-15 -1.13428 0 
5.57699e-15 -1.13428 0 
2.5014e-15 -1.13428 0 
-1.73795e-15 -1.13428 0 
2.58591e-15 -1.13428 0 
2.47271e-16 -1.13428 0 
3.66466e-15 -1.13428 0 
-1.962e-16 -1.13428 0 
1.84124e-16 -1.13428 0 
1.60995e-16 -1.13428 0 
6.1797e-16 -1.13428 0 
1.06012e-15 -1.13428 0 
1.82995e-15 -1.13428 0 
5.897e-16 -1.13428 0 
7.59435e-16 -1.13428 0 
2.31929e-15 -1.13428 0 
1.26616e-15 -1.13428 0 
1.03188e-15 -1.13428 0 
7.15008e-16 -1.13428 0 
9.54346e-16 -1.13428 0 
3.48714e-15 -1.13428 0 
3.83281e-16 -1.13428 0 
2.05338e-15 -1.13428 0 
-1.27301e-16 -1.13428 0 
7.71116e-16 -1.13428 0 
-1.06109e-15 -1.13428 0 
6.43563e-16 -1.13428 0 
1.84061e-16 -1.13428 0 
-1.87546e-16 -1.13428 0 
-1.56801e-16 -1.13428 0 
-1.01099e-15 -1.13428 0 
-2.7735e-16 -1.13428 0 
2.46392e-16 -1.13428 0 
-1.60839e-15 -1.13428 0 
-1.39691e-16 -1.13428 0 
6.55111e-17 -1.13428 0 
6.63822e-16 -1.13428 0 
1.03535e-18 -1.13428 0 
-6.81517e-16 -1.13428 0 
-1.67208e-15 -1.13428 0 
7.98612e-16 -1.13428 0 
-1.96029e-15 -1.13428 0 
1.23626e-15 -1.13428 0 
9.37287e-16 -1.13428 0 
-2.92191e-15 -1.13428 0 
3.46633e-15 -1.13428 0 
-5.9203e-15 -1.13428 0 
-4.81681e-15 -1.13428 0 
-1.29062e-15 -1.13428 0 
-9.90259e-15 -1.13428 0 
-3.2064e-15 -1.13428 0 
1.12186e-15 -1.13428 0 
-9.38779e-16 -1.13428 0 
3.42799e-15 -1.13428 0 
-1.07964e-16 -1.13428 0 
VECTORS body_force double
0 -9.81 0 
0 -9.81 0 
0 -9.81 0 
0 -9.81 0 
0 -9.81 0 
0 -9.81 0 
0 -9.81 0 
0 -9.81 0 
0 -9.81 0 
0 -9.81 0 
0 -9.81 0 
0 -9.81 0 
0 -9.81 0 
0 -9.81 0 
0 -9.81 0 
0 -9.81 0 
0 -9.81 0 
0 -9.81 0 
0 -9.81 0 
0 -9.81 0 
0 -9.81 0 
0 -9.81 0 
0 -9.81 0 
0 -9.81 0 
0 -9.81 0 
0 -9.81 0 
0 -9.81 0 
0 -9.81 0 
0 -9.81 0 
0 -9.81 0 
0 -9.81 0 
0 -9.81 0 
0 -9.81 0 
0 -9.81 0 
0 -9.81 0 
0 -9.81 0 
0 -9.81 0 
0 -9.81 0 
0 -9.81 0 
0 -9.81 0 
0 -9.81 0 
0 -9.81 0 
0 -9.81 0 
0 -9.81 0 
0 -9.81 0 
0 -9.81 0 
0 -9.81 0 
0 -9.81 0 
0 -9.81 0 
0 -9.81 0 
0 -9.81 0 
0 -9.81 0 
0 -9.81 0 
0 -9.81 0 
0 -9.81 0 
0 -9.81 0 
0 -9.81 0 
0 -9.81 0 
0 -9.81 0 
0 -9.81 0 
0 -9.81 0 
0 -9.81 0 
0 -9.81 0 
0 -9.81 0 
TENSORS cauchy_stress double
4.03987e-11 5.66005e-11 0
5.66005e-11 -2.52553e-10 0
0 0 -6.36462e-11

-2.0101e-12 2.48453e-11 0
2.48453e-11 -3.44457e-11 0
0 0 -1.09367e-11

9.77999e-11 -1.79662e-12 0
-1.79662e-12 -1.18617e-10 0
0 0 -6.24503e-12

6.11653e-11 4.65297e-12 0
4.65297e-12 1.12964e-10 0
0 0 5.22387e-11

-5.46159e-11 1.165e-13 0
1.165e-13 -3.03678e-11 0
0 0 -2.54951e-11

-8.87499e-11 1.12957e-11 0
1.12957e-11 -5.03457e-11 0
0 0 -4.17287e-11

-6.74679e-13 -1.47559e-11 0
-1.47559e-11 9.5495e-11 0
0 0 2.84461e-11

-5.90045e-11 -1.12586e-11 0
-1.12586e-11 1.90603e-11 0
0 0 -1.19833e-11

1.36109e-10 -6.95876e-11 0
-6.95876e-11 3.65239e-10 0
0 0 1.50404e-10

4.56638e-11 -4.24461e-11 0
-4.24461e-11 6.0868e-11 0
0 0 3.19595e-11

1.13571e-10 -3.74173e-11 0
-3.74173e-11 3.12652e-10 0
0 0 1.27867e-10

3.26005e-11 -3.87928e-11 0
-3.87928e-11 3.03871e-11 0
0 0 1.88963e-11

-1.40802e-10 4.62991e-12 0
4.62991e-12 -3.43744e-10 0
0 0 -1.45364e-10

2.36988e-11 -6.72275e-12 0
-6.72275e-12 6.40634e-11 0
0 0 2.63287e-11

-1.50497e-10 -2.20781e-12 0
-2.20781e-12 -3.66365e-10 0
0 0 -1.55058e-10

1.77484e-11 -3.22791e-12 0
-3.22791e-12 5.01792e-11 0
0 0 2.03783e-11

3.53647e-11 4.76382e-11 0
4.76382e-11 -9.71013e-11 0
0 0 -1.8521e-11

3.66913e-11 2.46857e-11 0
2.46857e-11 1.07443e-10 0
0 0 4.32404e-11

5.74327e-11 7.61665e-12 0
7.61665e-12 -4.56091e-11 0
0 0 3.54709e-12

3.34776e-11 -7.72079e-13 0
-7.72079e-13 9.99445e-11 0
0 0 4.00266e-11

1.62643e-11 -2.01534e-11 0
-2.01534e-11 1.43919e-10 0
0 0 4.8055e-11

-9.43928e-12 -3.13738e-11 0
-3.13738e-11 3.53553e-11 0
0 0 7.77481e-12

1.68372e-11 -2.72576e-11 0
-2.72576e-11 1.45256e-10 0
0 0 4.86279e-11

1.22229e-11 -3.09833e-11 0
-3.09833e-11 8.59004e-11 0
0 0 2.9437e-11

1.29713e-10 -3.60613e-11 0
-3.60613e-11 2.99039e-10 0
0 0 1.28626e-10

2.71549e-11 -1.77638e-11 0
-1.77638e-11 1.4084e-11 0
0 0 1.23717e-11

1.57394e-10 -2.86336e-11 0
-2.86336e-11 3.63628e-10 0
0 0 1.56307e-10

2.78723e-11 -1.28752e-11 0
-1.28752e-11 1.57578e-11 0
0 0 1.3089e-11

-1.25508e-10 4.09719e-12 0
4.09719e-12 -3.36375e-10 0
0 0 -1.38565e-10

5.58075e-12 7.17149e-13 0
7.17149e-13 3.76444e-11 0
0 0 1.29675e-11

-1.40768e-10 -6.45934e-13 0
-6.45934e-13 -3.7198e-10 0
0 0 -1.53824e-10

-4.54576e-12 2.53756e-12 0
2.53756e-12 1.40158e-11 0
0 0 2.84102e-12

5.79309e-11 -2.69401e-11 0
-2.69401e-11 -9.3225e-12 0
0 0 1.45825e-11

3.63245e-11 -7.46209e-12 0
-7.46209e-12 1.34215e-10 0
0 0 5.11619e-11

8.05274e-11 -5.47221e-11 0
-5.47221e-11 4.34027e-11 0
0 0 3.7179e-11

4.966e-11 -3.21615e-11 0
-3.21615e-11 1.65331e-10 0
0 0 6.44974e-11

1.99979e-11 1.47021e-11 0
1.47021e-11 1.76027e-10 0
0 0 5.88076e-11

-1.67829e-11 1.67986e-11 0
1.67986e-11 3.56089e-11 0
0 0 5.64781e-12

6.56115e-12 1.64925e-11 0
1.64925e-11 1.44675e-10 0
0 0 4.53708e-11

-1.39613e-12 2.80143e-11 0
2.80143e-11 7.15113e-11 0
0 0 2.10345e-11

1.56812e-10 9.09665e-12 0
9.09665e-12 3.79494e-10 0
0 0 1.60892e-10

1.86044e-11 3.58565e-12 0
3.58565e-12 1.045e-11 0
0 0 8.71633e-12

1.44997e-10 2.43505e-11 0
2.43505e-11 3.51925e-10 0
0 0 1.49077e-10

1.35188e-11 1.96495e-11 0
1.96495e-11 -1.41659e-12 0
0 0 3.63065e-12

-1.33536e-10 -5.60939e-12 0
-5.60939e-12 -3.57031e-10 0
0 0 -1.4717e-10

8.71968e-12 4.39847e-12 0
4.39847e-12 2.92965e-11 0
0 0 1.14049e-11

-1.37837e-10 -8.67468e-12 0
-8.67468e-12 -3.67067e-10 0
0 0 -1.51471e-10

9.88862e-12 -5.07137e-12 0
-5.07137e-12 3.20241e-11 0
0 0 1.25738e-11

1.53591e-10 1.13133e-11 0
1.13133e-11 3.16596e-11 0
0 0 5.55753e-11

5.62786e-11 3.79723e-12 0
3.79723e-12 1.00008e-10 0
0 0 4.6886e-11

1.15451e-10 -4.81585e-11 0
-4.81585e-11 -5.73342e-11 0
0 0 1.74351e-11

7.14644e-12 -1.078e-11 0
-1.078e-11 -1.46337e-11 0
0 0 -2.24618e-12

1.05796e-11 2.21773e-11 0
2.21773e-11 1.34291e-10 0
0 0 4.34613e-11

-6.96968e-11 6.7071e-12 0
6.7071e-12 -6.41308e-13 0
0 0 -2.11014e-11

-5.43725e-11 6.36916e-12 0
6.36916e-12 -1.72634e-11 0
0 0 -2.14907e-11

-7.40859e-11 9.65426e-12 0
9.65426e-12 -1.08826e-11 0
0 0 -2.54906e-11

1.1696e-10 3.72338e-11 0
3.72338e-11 3.18437e-10 0
0 0 1.30619e-10

2.37245e-11 3.61835e-11 0
3.61835e-11 2.16237e-11 0
0 0 1.36045e-11

1.24896e-10 6.23751e-11 0
6.23751e-11 3.36956e-10 0
0 0 1.38556e-10

4.86661e-11 3.42647e-11 0
3.42647e-11 7.98207e-11 0
0 0 3.85461e-11

-1.42202e-10 -3.64557e-12 0
-3.64557e-12 -3.47931e-10 0
0 0 -1.4704e-10

2.25949e-11 3.74838e-12 0
3.74838e-12 5.57761e-11 0
0 0 2.35113e-11

-1.41545e-10 5.20638e-13 0
5.20638e-13 -3.464e-10 0
0 0 -1.46384e-10

2.36453e-11 1.7357e-12 0
1.7357e-12 5.82271e-11 0
0 0 2.45617e-11

TENSORS velocity_gradient double
1.6242e-14 -2.96582e-14 0
-5.06262e-14 1.48326e-13 0
0 0 0

3.09247e-14 4.39826e-14 0
-2.66454e-14 -2.66454e-14 0
0 0 0

1.6242e-14 -1.49624e-14 0
-5.01821e-14 2.34035e-13 0
0 0 0

3.09247e-14 5.8661e-14 0
-2.13163e-14 3.55271e-14 0
0 0 0

4.1847e-14 6.73479e-14 0
-3.33067e-16 8.49321e-14 0
0 0 0

-2.61932e-14 2.07715e-13 0
5.32907e-15 -3.0731e-13 0
0 0 0

4.1847e-14 6.70019e-14 0
-2.75335e-14 1.28786e-13 0
0 0 0

-2.61932e-14 1.1711e-13 0
2.13163e-14 -2.77112e-13 0
0 0 0

-1.1034e-13 1.5177e-13 0
5.62883e-14 -1.71085e-13 0
0 0 0

-5.87159e-14 -1.84316e-13 0
6.21725e-14 3.17968e-13 0
0 0 0

-1.1034e-13 8.69989e-14 0
5.81757e-14 -1.9762e-13 0
0 0 0

-5.87159e-14 -9.38938e-14 0
3.55271e-14 2.62901e-13 0
0 0 0

2.74185e-14 -1.45733e-13 0
-3.33067e-15 -6.01741e-14 0
0 0 0

2.34126e-14 8.60571e-14 0
1.42109e-14 0 0
0 0 0

2.74185e-14 -7.24616e-14 0
-2.22045e-15 -8.74856e-14 0
0 0 0

2.34126e-14 5.62922e-14 0
1.42109e-14 -2.84217e-14 0
0 0 0

3.89259e-14 -9.22509e-15 0
-9.9476e-14 3.2685e-13 0
0 0 0

1.41753e-14 5.00367e-14 0
-3.37508e-14 5.15143e-14 0
0 0 0

3.89259e-14 -1.24463e-14 0
-1.03473e-13 3.79696e-13 0
0 0 0

1.41753e-14 1.81097e-14 0
-4.26326e-14 7.10543e-14 0
0 0 0

-1.78641e-14 5.06405e-14 0
-5.66214e-15 1.36446e-13 0
0 0 0

-5.22679e-14 5.42678e-14 0
-3.55271e-15 -2.02505e-13 0
0 0 0

-1.78641e-14 1.82636e-14 0
-1.5099e-14 1.2701e-13 0
0 0 0

-5.22679e-14 1.91884e-14 0
-1.42109e-14 -2.27374e-13 0
0 0 0

-8.50675e-14 4.16333e-14 0
-1.88738e-15 -1.72418e-13 0
0 0 0

-6.99371e-14 -3.42691e-14 0
-1.06581e-14 2.73559e-13 0
0 0 0

-8.50675e-14 1.56735e-14 0
-2.44249e-14 -1.80744e-13 0
0 0 0

-6.99371e-14 -5.44205e-15 0
-1.42109e-14 2.70006e-13 0
0 0 0

-4.24998e-14 -2.4192e-14 0
-5.24025e-14 -8.08242e-14 0
0 0 0

-4.42778e-14 3.63463e-14 0
-3.19744e-14 -3.19744e-14 0
0 0 0

-4.24998e-14 -9.23818e-16 0
-1.68754e-14 -1.30562e-13 0
0 0 0

-4.42778e-14 2.62195e-14 0
-7.10543e-15 7.10543e-15 0
0 0 0

-1.32062e-14 1.12891e-14 0
-2.42029e-14 3.5949e-13 0
0 0 0

-1.05487e-14 -4.53081e-15 0
-5.32907e-14 6.03961e-14 0
0 0 0

-1.32062e-14 6.19811e-14 0
-2.88658e-14 2.69562e-13 0
0 0 0

-1.05487e-14 -1.78848e-14 0
-4.9738e-14 4.9738e-14 0
0 0 0

-2.45518e-14 -5.89996e-15 0
-6.40599e-14 1.49103e-13 0
0 0 0

-5.22e-14 -1.41251e-14 0
-3.01981e-14 -2.14939e-13 0
0 0 0

-2.45518e-14 -2.18503e-14 0
-5.06262e-14 1.90958e-13 0
0 0 0

-5.22e-14 -4.56726e-14 0
-4.26326e-14 -1.7053e-13 0
0 0 0

-8.14851e-14 -8.55556e-15 0
-3.09752e-14 -1.73084e-13 0
0 0 0

-6.32115e-14 2.49036e-14 0
-2.66454e-14 2.2915e-13 0
0 0 0

-8.14851e-14 -3.10539e-14 0
-3.4639e-14 -1.34115e-13 0
0 0 0

-6.32115e-14 5.67679e-14 0
-2.13163e-14 2.62901e-13 0
0 0 0

-3.30428e-14 2.32513e-14 0
1.9762e-14 -1.22347e-13 0
0 0 0

-3.85185e-14 1.33252e-14 0
7.10543e-15 2.13163e-14 0
0 0 0

-3.30428e-14 4.83335e-14 0
-5.32907e-15 -9.05942e-14 0
0 0 0

-3.85185e-14 -2.33647e-15 0
7.10543e-15 3.55271e-14 0
0 0 0

-6.05521e-14 1.08885e-13 0
-4.19664e-14 3.13305e-13 0
0 0 0

-1.985e-14 -4.61297e-15 0
-1.95399e-14 6.57252e-14 0
0 0 0

-6.05521e-14 1.52e-13 0
-4.30767e-14 3.83249e-13 0
0 0 0

-1.985e-14 3.52848e-14 0
-2.84217e-14 1.42109e-14 0
0 0 0

1.58226e-14 -1.8327e-14 0
-3.4972e-14 1.78191e-13 0
0 0 0

-3.73304e-14 -1.00714e-13 0
-4.9738e-14 -2.06057e-13 0
0 0 0

1.58226e-14 4.66976e-15 0
-1.28786e-14 1.57652e-13 0
0 0 0

-3.73304e-14 -1.79251e-13 0
-4.26326e-14 -2.27374e-13 0
0 0 0

-1.09834e-13 -6.95068e-14 0
-2.77556e-14 -1.27232e-13 0
0 0 0

-5.5526e-14 1.17974e-13 0
-3.19744e-14 2.80664e-13 0
0 0 0

-1.09834e-13 -1.23914e-13 0
-6.43929e-14 -1.49658e-13 0
0 0 0

-5.5526e-14 2.08521e-13 0
-5.68434e-14 2.55795e-13 0
0 0 0

3.0615e-14 9.73361e-14 0
-2.19824e-14 -5.04041e-14 0
0 0 0

2.41308e-14 -2.66439e-14 0
-2.4869e-14 -1.06581e-14 0
0 0 0

3.0615e-14 1.70259e-13 0
-1.42109e-14 -7.10543e-14 0
0 0 0

2.41308e-14 -5.95972e-14 0
0 -1.42109e-14 0
0 0 0

SCALARS active double 1
LOOKUP_TABLE default
1
1
1
1
1
1
1
1
1
1
1
1
1
1
1
1
1
1
1
1
1
1
1
1
1
1
1
1
1
1
1
1
1
1
1
1
1
1
1
1
1
1
1
1
1
1
1
1
1
1
1
1
1
1
1
1
1
1
1
1
1
1
1
1
SCALARS extent double 1
LOOKUP_TABLE default
0.0125
0.0125
0.0125
0.0125
0.0125
0.0125
0.0125
0.0125
0.0125
0.0125
0.0125
0.0125
0.0125
0.0125
0.0125
0.0125
0.0125
0.0125
0.0125
0.0125
0.0125
0.0125
0.0125
0.0125
0.0125
0.0125
0.0125
0.0125
0.0125
0.0125
0.0125
0.0125
0.0125
0.0125
0.0125
0.0125
0.0125
0.0125
0.0125
0.0125
0.0125
0.0125
0.0125
0.0125
0.0125
0.0125
0.0125
0.0125
0.0125
0.0125
0.0125
0.0125
0.0125
0.0125
0.0125
0.0125
0.0125
0.0125
0.0125
0.0125
0.0125
0.0125
0.0125
0.0125
SCALARS pressure double 1
LOOKUP_TABLE default
9.19334e-11
1.57975e-11
9.0206e-12
-7.54559e-11
3.68263e-11
6.02748e-11
-4.10888e-11
1.73092e-11
-2.1725e-10
-4.61638e-11
-1.84697e-10
-2.72946e-11
2.0997e-10
-3.80303e-11
2.23973e-10
-2.94353e-11
2.67525e-11
-6.24584e-11
-5.12358e-12
-5.78162e-11
-6.94128e-11
-1.12303e-11
-7.02403e-11
-4.25201e-11
-1.85793e-10
-1.78702e-11
-2.25776e-10
-1.89064e-11
2.00149e-10
-1.87309e-11
2.22191e-10
-4.1037e-12
-2.10636e-11
-7.39005e-11
-5.3703e-11
-9.31629e-11
-8.49443e-11
-8.15794e-12
-6.55356e-11
-3.03832e-11
-2.32399e-10
-1.25903e-11
-2.15333e-10
-5.24428e-12
2.12579e-10
-1.64737e-11
2.18792e-10
-1.81622e-11
-8.02754e-11
-6.77242e-11
-2.5184e-11
3.24448e-12
-6.27774e-11
3.04799e-11
3.10422e-11
3.68197e-11
-1.88672e-10
-1.96509e-11
-2.00136e-10
-5.56776e-11
2.12391e-10
-3.39607e-11
2.11443e-10
-3.5478e-11
SCALARS density double 1
LOOKUP_TABLE default
1000
1000
1000
1000
1000
1000
1000
1000
1000
1000
1000
1000
1000
1000
1000
1000
1000
1000
1000
1000
1000
1000
1000
1000
1000
1000
1000
1000
1000
1000
1000
1000
1000
1000
1000
1000
1000
1000
1000
1000
1000
1000
1000
1000
1000
1000
1000
1000
1000
1000
1000
1000
1000
1000
1000
1000
1000
1000
1000
1000
1000
1000
1000
1000
