# vtk DataFile Version 3.0
Frame: 5, Time: 0.084
ASCII
DATASET UNSTRUCTURED_GRID
POINTS 64 double
0.5125 0.576644 0 
0.5125 0.601644 0 
0.5375 0.576644 0 
0.5375 0.601644 0 
0.5125 0.626644 0 
0.5125 0.651644 0 
0.5375 0.626644 0 
0.5375 0.651644 0 
0.5125 0.676644 0 
0.5125 0.701644 0 
0.5375 0.676644 0 
0.5375 0.701644 0 
0.5125 0.726644 0 
0.5125 0.751644 0 
0.5375 0.726644 0 
0.5375 0.751644 0 
0.5625 0.576644 0 
0.5625 0.601644 0 
0.5875 0.576644 0 
0.5875 0.601644 0 
0.5625 0.626644 0 
0.5625 0.651644 0 
0.5875 0.626644 0 
0.5875 0.651644 0 
0.5625 0.676644 0 
0.5625 0.701644 0 
0.5875 0.676644 0 
0.5875 0.701644 0 
0.5625 0.726644 0 
0.5625 0.751644 0 
0.5875 0.726644 0 
0.5875 0.751644 0 
0.6125 0.576644 0 
0.6125 0.601644 0 
0.6375 0.576644 0 
0.6375 0.601644 0 
0.6125 0.626644 0 
0.6125 0.651644 0 
0.6375 0.626644 0 
0.6375 0.651644 0 
0.6125 0.676644 0 
0.6125 0.701644 0 
0.6375 0.676644 0 
0.6375 0.701644 0 
0.6125 0.726644 0 
0.6125 0.751644 0 
0.6375 0.726644 0 
0.6375 0.751644 0 
0.6625 0.576644 0 
0.6625 0.601644 0 
0.6875 0.576644 0 
0.6875 0.601644 0 
0.6625 0.626644 0 
0.6625 0.651644 0 
0.6875 0.626644 0 
0.6875 0.651644 0 
0.6625 0.676644 0 
0.6625 0.701644 0 
0.6875 0.676644 0 
0.6875 0.701644 0 
0.6625 0.726644 0 
0.6625 0.751644 0 
0.6875 0.726644 0 
0.6875 0.751644 0 
CELLS 64 128
1 0
1 1
1 2
1 3
1 4
1 5
1 6
1 7
1 8
1 9
1 10
1 11
1 12
1 13
1 14
1 15
1 16
1 17
1 18
1 19
1 20
1 21
1 22
1 23
1 24
1 25
1 26
1 27
1 28
1 29
1 30
1 31
1 32
1 33
1 34
1 35
1 36
1 37
1 38
1 39
1 40
1 41
1 42
1 43
1 44
1 45
1 46
1 47
1 48
1 49
1 50
1 51
1 52
1 53
1 54
1 55
1 56
1 57
1 58
1 59
1 60
1 61
1 62
1 63
CELL_TYPES 64
1
1
1
1
1
1
1
1
1
1
1
1
1
1
1
1
1
1
1
1
1
1
1
1
1
1
1
1
1
1
1
1
1
1
1
1
1
1
1
1
1
1
1
1
1
1
1
1
1
1
1
1
1
1
1
1
1
1
1
1
1
1
1
1
POINT_DATA 64
VECTORS displacement double
-2.74512e-17 -0.0358555 0 
-3.42127e-18 -0.0358555 0 
-1.90186e-17 -0.0358555 0 
-1.41819e-18 -0.0358555 0 
2.27715e-17 -0.0358555 0 
9.31596e-18 -0.0358555 0 
1.36091e-17 -0.0358555 0 
7.81812e-18 -0.0358555 0 
-5.49616e-18 -0.0358555 0 
1.17309e-17 -0.0358555 0 
3.47278e-18 -0.0358555 0 
1.47801e-17 -0.0358555 0 
3.31983e-17 -0.0358555 0 
3.57126e-17 -0.0358555 0 
2.6673e-17 -0.0358555 0 
3.17311e-17 -0.0358555 0 
-1.22774e-17 -0.0358555 0 
-5.0181e-19 -0.0358555 0 
-7.22749e-18 -0.0358555 0 
-6.72124e-19 -0.0358555 0 
7.91938e-18 -0.0358555 0 
7.43921e-18 -0.0358555 0 
5.70234e-18 -0.0358555 0 
8.17924e-18 -0.0358555 0 
8.94899e-18 -0.0358555 0 
1.62418e-17 -0.0358555 0 
1.09325e-17 -0.0358555 0 
1.61161e-17 -0.0358555 0 
2.29785e-17 -0.0358555 0 
2.91121e-17 -0.0358555 0 
2.21149e-17 -0.0358555 0 
2.78556e-17 -0.0358555 0 
-3.22006e-18 -0.0358555 0 
-1.19808e-18 -0.0358556 0 
-2.55103e-19 -0.0358555 0 
-2.07969e-18 -0.0358556 0 
3.36397e-18 -0.0358556 0 
8.94576e-18 -0.0358555 0 
9.04254e-19 -0.0358556 0 
9.73878e-18 -0.0358555 0 
1.30806e-17 -0.0358555 0 
1.6136e-17 -0.0358556 0 
1.53935e-17 -0.0358555 0 
1.63016e-17 -0.0358556 0 
2.1008e-17 -0.0358556 0 
2.63545e-17 -0.0358555 0 
1.96579e-17 -0.0358556 0 
2.4609e-17 -0.0358555 0 
4.78406e-18 -0.0358555 0 
-1.22273e-18 -0.0358555 0 
1.18974e-17 -0.0358555 0 
1.37281e-18 -0.0358555 0 
-4.72477e-18 -0.0358555 0 
9.32341e-18 -0.0358555 0 
-1.35231e-17 -0.0358555 0 
7.69963e-18 -0.0358555 0 
2.12505e-17 -0.0358555 0 
1.83423e-17 -0.0358555 0 
3.06516e-17 -0.0358555 0 
2.2258e-17 -0.0358555 0 
1.59558e-17 -0.0358555 0 
2.17864e-17 -0.0358555 0 
9.90169e-18 -0.0358555 0 
1.78866e-17 -0.0358555 0 
VECTORS velocity double
1.04495e-15 -0.83385 0 
-6.45975e-16 -0.83385 0 
3.43054e-16 -0.83385 0 
9.36819e-16 -0.83385 0 
2.17987e-15 -0.83385 0 
-6.48187e-16 -0.83385 0 
4.95027e-16 -0.83385 0 
-7.75376e-16 -0.83385 0 
-4.53822e-18 -0.83385 0 
3.9443e-15 -0.83385 0 
1.15907e-15 -0.83385 0 
2.77253e-15 -0.83385 0 
4.10677e-15 -0.83385 0 
5.25846e-15 -0.83385 0 
2.00445e-15 -0.83385 0 
4.33667e-15 -0.83385 0 
9.15773e-17 -0.83385 0 
1.34705e-15 -0.83385 0 
2.90522e-16 -0.83385 0 
5.8471e-16 -0.83385 0 
-2.30454e-16 -0.83385 0 
-6.84507e-16 -0.83385 0 
3.42332e-18 -0.83385 0 
-3.75581e-16 -0.83385 0 
1.29419e-15 -0.83385 0 
1.74068e-15 -0.83385 0 
4.00805e-16 -0.83385 0 
8.48768e-16 -0.83385 0 
9.84682e-16 -0.83385 0 
3.46571e-15 -0.83385 0 
1.04746e-15 -0.83385 0 
2.6456e-15 -0.83385 0 
-8.10198e-17 -0.83385 0 
-4.25017e-16 -0.83385 0 
-1.02305e-15 -0.83385 0 
-1.68213e-15 -0.83385 0 
1.04104e-16 -0.83385 0 
2.54407e-17 -0.83385 0 
7.15888e-17 -0.83385 0 
5.18557e-16 -0.83385 0 
-2.84602e-16 -0.83385 0 
1.08683e-16 -0.83385 0 
-7.62037e-16 -0.83385 0 
-4.79571e-16 -0.83385 0 
1.09442e-15 -0.83385 0 
1.74668e-15 -0.83385 0 
1.12557e-15 -0.83385 0 
7.68959e-16 -0.83385 0 
-2.335e-15 -0.83385 0 
-1.37064e-15 -0.83385 0 
-4.01688e-15 -0.83385 0 
5.09471e-16 -0.83385 0 
-6.9228e-16 -0.83385 0 
7.54214e-16 -0.83385 0 
-2.1875e-15 -0.83385 0 
7.32411e-16 -0.83385 0 
-1.56503e-16 -0.83385 0 
-9.29747e-16 -0.83385 0 
1.532e-15 -0.83385 0 
-1.24184e-15 -0.83385 0 
3.60451e-16 -0.83385 0 
-1.28408e-16 -0.83385 0 
-1.20095e-15 -0.83385 0 
-9.45419e-16 -0.83385 0 
SCALARS mass double 1
LOOKUP_TABLE default
0.625
0.625
0.625
0.625
0.625
0.625
0.625
0.625
0.625
0.625
0.625
0.625
0.625
0.625
0.625
0.625
0.625
0.625
0.625
0.625
0.625
0.625
0.625
0.625
0.625
0.625
0.625
0.625
0.625
0.625
0.625
0.625
0.625
0.625
0.625
0.625
0.625
0.625
0.625
0.625
0.625
0.625
0.625
0.625
0.625
0.625
0.625
0.625
0.625
0.625
0.625
0.625
0.625
0.625
0.625
0.625
0.625
0.625
0.625
0.625
0.625
0.625
0.625
0.625
SCALARS volume double 1
LOOKUP_TABLE default
0.000625
0.000625
0.000625
0.000625
0.000625
0.000625
0.000625
0.000625
0.000625
0.000625
0.000625
0.000625
0.000625
0.000625
0.000625
0.000625
0.000625
0.000625
0.000625
0.000625
0.000625
0.000625
0.000625
0.000625
0.000625
0.000625
0.000625
0.000625
0.000625
0.000625
0.000625
0.000625
0.000625
0.000625
0.000625
0.000625
0.000625
0.000625
0.000625
0.000625
0.000625
0.000625
0.000625
0.000625
0.000625
0.000625
0.000625
0.000625
0.000625
0.000625
0.000625
0.000625
0.000625
0.000625
0.000625
0.000625
0.000625
0.000625
0.000625
0.000625
0.000625
0.000625
0.000625
0.000625
VECTORS momentum double
6.53095e-16 -0.521156 0 
-4.03734e-16 -0.521156 0 
2.14409e-16 -0.521156 0 
5.85512e-16 -0.521156 0 
1.36242e-15 -0.521156 0 
-4.05117e-16 -0.521156 0 
3.09392e-16 -0.521156 0 
-4.8461e-16 -0.521156 0 
-2.83639e-18 -0.521156 0 
2.46519e-15 -0.521156 0 
7.24419e-16 -0.521156 0 
1.73283e-15 -0.521156 0 
2.56673e-15 -0.521156 0 
3.28654e-15 -0.521156 0 
1.25278e-15 -0.521156 0 
2.71042e-15 -0.521156 0 
5.72358e-17 -0.521156 0 
8.41904e-16 -0.521156 0 
1.81576e-16 -0.521156 0 
3.65444e-16 -0.521156 0 
-1.44034e-16 -0.521156 0 
-4.27817e-16 -0.521156 0 
2.13957e-18 -0.521156 0 
-2.34738e-16 -0.521156 0 
8.08866e-16 -0.521156 0 
1.08793e-15 -0.521156 0 
2.50503e-16 -0.521156 0 
5.3048e-16 -0.521156 0 
6.15426e-16 -0.521156 0 
2.16607e-15 -0.521156 0 
6.54662e-16 -0.521156 0 
1.6535e-15 -0.521156 0 
-5.06374e-17 -0.521156 0 
-2.65635e-16 -0.521156 0 
-6.39406e-16 -0.521156 0 
-1.05133e-15 -0.521156 0 
6.50653e-17 -0.521156 0 
1.59004e-17 -0.521156 0 
4.4743e-17 -0.521156 0 
3.24098e-16 -0.521156 0 
-1.77876e-16 -0.521156 0 
6.79267e-17 -0.521156 0 
-4.76273e-16 -0.521156 0 
-2.99732e-16 -0.521156 0 
6.84015e-16 -0.521156 0 
1.09168e-15 -0.521156 0 
7.03484e-16 -0.521156 0 
4.806e-16 -0.521156 0 
-1.45938e-15 -0.521156 0 
-8.56648e-16 -0.521156 0 
-2.51055e-15 -0.521156 0 
3.18419e-16 -0.521156 0 
-4.32675e-16 -0.521156 0 
4.71383e-16 -0.521156 0 
-1.36719e-15 -0.521156 0 
4.57757e-16 -0.521156 0 
-9.78145e-17 -0.521156 0 
-5.81092e-16 -0.521156 0 
9.57499e-16 -0.521156 0 
-7.76153e-16 -0.521156 0 
2.25282e-16 -0.521156 0 
-8.0255e-17 -0.521156 0 
-7.50591e-16 -0.521156 0 
-5.90887e-16 -0.521156 0 
VECTORS body_force double
0 -9.81 0 
0 -9.81 0 
0 -9.81 0 
0 -9.81 0 
0 -9.81 0 
0 -9.81 0 
0 -9.81 0 
0 -9.81 0 
0 -9.81 0 
0 -9.81 0 
0 -9.81 0 
0 -9.81 0 
0 -9.81 0 
0 -9.81 0 
0 -9.81 0 
0 -9.81 0 
0 -9.81 0 
0 -9.81 0 
0 -9.81 0 
0 -9.81 0 
0 -9.81 0 
0 -9.81 0 
0 -9.81 0 
0 -9.81 0 
0 -9.81 0 
0 -9.81 0 
0 -9.81 0 
0 -9.81 0 
0 -9.81 0 
0 -9.81 0 
0 -9.81 0 
0 -9.81 0 
0 -9.81 0 
0 -9.81 0 
0 -9.81 0 
0 -9.81 0 
0 -9.81 0 
0 -9.81 0 
0 -9.81 0 
0 -9.81 0 
0 -9.81 0 
0 -9.81 0 
0 -9.81 0 
0 -9.81 0 
0 -9.81 0 
0 -9.81 0 
0 -9.81 0 
0 -9.81 0 
0 -9.81 0 
0 -9.81 0 
0 -9.81 0 
0 -9.81 0 
0 -9.81 0 
0 -9.81 0 
0 -9.81 0 
0 -9.81 0 
0 -9.81 0 
0 -9.81 0 
0 -9.81 0 
0 -9.81 0 
0 -9.81 0 
0 -9.81 0 
0 -9.81 0 
0 -9.81 0 
TENSORS cauchy_stress double
4.75094e-11 -1.49449e-11 0
-1.49449e-11 2.43674e-11 0
0 0 2.15631e-11

-1.12944e-10 2.47585e-11 0
2.47585e-11 -2.8408e-10 0
0 0 -1.19107e-10

3.81763e-11 -5.84466e-12 0
-5.84466e-12 2.59025e-12 0
0 0 1.223e-11

-1.05451e-10 5.35627e-12 0
5.35627e-12 -2.66598e-10 0
0 0 -1.11615e-10

5.61178e-12 1.04292e-11 0
1.04292e-11 1.07067e-10 0
0 0 3.38037e-11

9.6095e-11 -3.54311e-11 0
-3.54311e-11 2.39584e-10 0
0 0 1.00704e-10

1.6376e-11 2.87037e-12 0
2.87037e-12 1.32184e-10 0
0 0 4.45679e-11

9.687e-11 -1.82183e-11 0
-1.82183e-11 2.41392e-10 0
0 0 1.01479e-10

-1.09748e-11 -1.28125e-11 0
-1.28125e-11 -1.17597e-10 0
0 0 -3.85715e-11

-6.95782e-11 2.99426e-11 0
2.99426e-11 -1.93623e-10 0
0 0 -7.89603e-11

-1.0512e-11 -3.88292e-12 0
-3.88292e-12 -1.16517e-10 0
0 0 -3.81088e-11

-7.07647e-11 1.28543e-11 0
1.28543e-11 -1.96391e-10 0
0 0 -8.01469e-11

2.51674e-11 1.08951e-11 0
1.08951e-11 1.25651e-10 0
0 0 4.52454e-11

1.65019e-12 -7.35008e-12 0
-7.35008e-12 4.46861e-11 0
0 0 1.39009e-11

2.43968e-11 3.56675e-12 0
3.56675e-12 1.23853e-10 0
0 0 4.44748e-11

1.11056e-12 3.8052e-12 0
3.8052e-12 4.34269e-11 0
0 0 1.33613e-11

1.84103e-11 6.70359e-12 0
6.70359e-12 -8.83642e-12 0
0 0 2.87216e-12

-1.13037e-10 4.67687e-12 0
4.67687e-12 -2.62007e-10 0
0 0 -1.12513e-10

3.9548e-11 -1.89903e-13 0
-1.89903e-13 4.0485e-11 0
0 0 2.40099e-11

-1.15294e-10 9.92001e-13 0
9.92001e-13 -2.67271e-10 0
0 0 -1.14769e-10

5.7796e-11 -2.23776e-12 0
-2.23776e-12 1.57596e-10 0
0 0 6.46176e-11

1.09748e-10 -1.33551e-11 0
-1.33551e-11 2.48488e-10 0
0 0 1.07471e-10

5.36699e-11 -5.68514e-12 0
-5.68514e-12 1.47969e-10 0
0 0 6.04915e-11

1.14553e-10 -1.00181e-11 0
-1.00181e-11 2.59701e-10 0
0 0 1.12276e-10

-5.10416e-11 -6.29914e-12 0
-6.29914e-12 -1.3944e-10 0
0 0 -5.71446e-11

-8.81345e-11 -2.0813e-12 0
-2.0813e-12 -2.04357e-10 0
0 0 -8.77475e-11

-4.69451e-11 -5.25387e-12 0
-5.25387e-12 -1.29882e-10 0
0 0 -5.30481e-11

-8.94172e-11 -4.75054e-12 0
-4.75054e-12 -2.0735e-10 0
0 0 -8.90302e-11

5.33314e-11 -3.52223e-12 0
-3.52223e-12 1.33298e-10 0
0 0 5.59887e-11

1.7391e-11 -1.56873e-12 0
-1.56873e-12 5.34665e-11 0
0 0 2.12573e-11

5.4811e-11 -4.07475e-12 0
-4.07475e-12 1.3675e-10 0
0 0 5.74683e-11

1.3913e-11 -3.13877e-12 0
-3.13877e-12 4.53512e-11 0
0 0 1.77793e-11

3.099e-11 -6.50887e-12 0
-6.50887e-12 4.19002e-11 0
0 0 2.18671e-11

-1.18794e-10 -2.39184e-12 0
-2.39184e-12 -2.68143e-10 0
0 0 -1.16081e-10

2.64904e-11 -1.09408e-11 0
-1.09408e-11 3.14011e-11 0
0 0 1.73674e-11

-1.1357e-10 -8.74874e-12 0
-8.74874e-12 -2.55955e-10 0
0 0 -1.10858e-10

5.55165e-11 3.34982e-12 0
3.34982e-12 1.54766e-10 0
0 0 6.30848e-11

1.11391e-10 1.03973e-12 0
1.03973e-12 2.51779e-10 0
0 0 1.08951e-10

5.68924e-11 1.94315e-12 0
1.94315e-12 1.57977e-10 0
0 0 6.44607e-11

1.13788e-10 6.6514e-12 0
6.6514e-12 2.57372e-10 0
0 0 1.11348e-10

-4.79719e-11 -2.52408e-12 0
-2.52408e-12 -1.35657e-10 0
0 0 -5.50886e-11

-8.60771e-11 -2.82843e-12 0
-2.82843e-12 -2.02545e-10 0
0 0 -8.65867e-11

-5.23098e-11 -7.00352e-13 0
-7.00352e-13 -1.45778e-10 0
0 0 -5.94264e-11

-8.94141e-11 -3.82285e-12 0
-3.82285e-12 -2.10332e-10 0
0 0 -8.99238e-11

5.64076e-11 -1.02853e-12 0
-1.02853e-12 1.45465e-10 0
0 0 6.05618e-11

1.25178e-11 -1.48751e-12 0
-1.48751e-12 4.7111e-11 0
0 0 1.78886e-11

5.33667e-11 -1.91496e-12 0
-1.91496e-12 1.3837e-10 0
0 0 5.75209e-11

1.24201e-11 -2.88453e-12 0
-2.88453e-12 4.68831e-11 0
0 0 1.77909e-11

3.84701e-11 9.4331e-12 0
9.4331e-12 1.68059e-11 0
0 0 1.65828e-11

-1.02125e-10 -1.0436e-12 0
-1.0436e-12 -2.64913e-10 0
0 0 -1.10111e-10

4.33532e-11 1.56851e-11 0
1.56851e-11 2.81998e-11 0
0 0 2.14659e-11

-1.09339e-10 -2.01294e-11 0
-2.01294e-11 -2.81745e-10 0
0 0 -1.17325e-10

1.87622e-11 5.43475e-13 0
5.43475e-13 1.34018e-10 0
0 0 4.5834e-11

9.56346e-11 1.56988e-11 0
1.56988e-11 2.39802e-10 0
0 0 1.00631e-10

9.86385e-12 -1.08292e-11 0
-1.08292e-11 1.13255e-10 0
0 0 3.69356e-11

9.85714e-11 3.39712e-11 0
3.39712e-11 2.46654e-10 0
0 0 1.03568e-10

-1.55419e-11 4.96876e-12 0
4.96876e-12 -1.32686e-10 0
0 0 -4.44682e-11

-6.85953e-11 -1.15345e-11 0
-1.15345e-11 -2.00217e-10 0
0 0 -8.06436e-11

-1.73285e-11 1.33568e-11 0
1.33568e-11 -1.36854e-10 0
0 0 -4.62549e-11

-6.6339e-11 -2.83022e-11 0
-2.83022e-11 -1.94952e-10 0
0 0 -7.83874e-11

2.50781e-11 -4.54937e-12 0
-4.54937e-12 1.20609e-10 0
0 0 4.3706e-11

5.89793e-12 -2.34561e-12 0
-2.34561e-12 5.37596e-11 0
0 0 1.78973e-11

2.17014e-11 -1.14717e-11 0
-1.14717e-11 1.1273e-10 0
0 0 4.03293e-11

-1.02122e-12 5.60135e-12 0
5.60135e-12 3.76149e-11 0
0 0 1.09781e-11

TENSORS velocity_gradient double
6.82749e-16 -2.19444e-14 0
5.32907e-15 6.92779e-14 0
0 0 0

1.47278e-14 3.62811e-15 0
1.33227e-15 -1.54987e-13 0
0 0 0

6.82749e-16 -8.86433e-16 0
7.10543e-15 4.9738e-14 0
0 0 0

1.47278e-14 -3.3655e-15 0
5.32907e-15 -1.5099e-13 0
0 0 0

-1.35709e-15 1.46786e-14 0
7.10543e-15 -4.26326e-14 0
0 0 0

-1.64223e-14 2.32565e-14 0
5.77316e-15 2.26041e-13 0
0 0 0

-1.35709e-15 -4.43676e-15 0
7.10543e-15 -2.84217e-14 0
0 0 0

-1.64223e-14 2.03416e-14 0
1.06581e-14 2.23821e-13 0
0 0 0

-1.40869e-14 2.69632e-14 0
0 1.13687e-13 0
0 0 0

-1.17742e-14 3.54084e-14 0
-3.9968e-15 -1.17684e-13 0
0 0 0

-1.40869e-14 3.10489e-14 0
-3.55271e-15 1.10134e-13 0
0 0 0

-1.17742e-14 3.24023e-14 0
-1.15463e-14 -1.32339e-13 0
0 0 0

-1.70788e-14 3.90578e-14 0
-1.24345e-14 -2.66454e-14 0
0 0 0

-2.29561e-14 3.07697e-14 0
-1.15463e-14 3.81917e-14 0
0 0 0

-1.70788e-14 3.29871e-14 0
-2.13163e-14 -4.26326e-14 0
0 0 0

-2.29561e-14 2.54726e-14 0
-1.42109e-14 2.84217e-14 0
0 0 0

-1.05946e-14 7.22457e-15 0
2.66454e-14 3.37508e-14 0
0 0 0

-1.34542e-14 -5.3277e-15 0
2.17604e-14 -1.84297e-13 0
0 0 0

-1.05946e-14 2.38859e-15 0
2.4869e-14 5.32907e-14 0
0 0 0

-1.34542e-14 -2.25849e-15 0
1.95399e-14 -1.65201e-13 0
0 0 0

-7.82301e-15 -1.07518e-14 0
2.13163e-14 -3.55271e-14 0
0 0 0

-4.32428e-15 1.61537e-14 0
1.02141e-14 1.94955e-13 0
0 0 0

-7.82301e-15 -4.2666e-15 0
2.4869e-14 -3.90799e-14 0
0 0 0

-4.32428e-15 1.06929e-14 0
1.33227e-14 1.98064e-13 0
0 0 0

-1.36567e-14 2.77802e-14 0
1.59872e-14 9.41469e-14 0
0 0 0

-2.30858e-14 2.79752e-14 0
7.10543e-15 -1.49214e-13 0
0 0 0

-1.36567e-14 1.71573e-14 0
1.42109e-14 9.9476e-14 0
0 0 0

-2.30858e-14 2.21272e-14 0
-2.66454e-15 -1.44773e-13 0
0 0 0

-2.73863e-14 2.80594e-14 0
3.55271e-15 -4.61853e-14 0
0 0 0

-3.07803e-14 2.17132e-14 0
1.33227e-15 1.55431e-14 0
0 0 0

-2.73863e-14 2.42748e-14 0
3.55271e-15 -3.19744e-14 0
0 0 0

-3.07803e-14 1.94913e-14 0
-8.88178e-16 3.4639e-14 0
0 0 0

-2.82227e-14 1.8314e-15 0
-1.42109e-14 6.39488e-14 0
0 0 0

-2.28112e-14 4.51673e-15 0
-3.10862e-15 -1.80744e-13 0
0 0 0

-2.82227e-14 5.55299e-15 0
-3.55271e-15 6.03961e-14 0
0 0 0

-2.28112e-14 1.4998e-14 0
-1.15463e-14 -1.67866e-13 0
0 0 0

-1.01392e-14 5.67713e-15 0
-1.24345e-14 -4.08562e-14 0
0 0 0

-5.27547e-16 7.08257e-15 0
-9.76996e-15 1.89182e-13 0
0 0 0

-1.01392e-14 1.90793e-14 0
-3.55271e-15 -6.03961e-14 0
0 0 0

-5.27547e-16 5.32261e-15 0
3.55271e-15 2.02505e-13 0
0 0 0

-7.20145e-15 7.68989e-15 0
-1.06581e-14 8.17124e-14 0
0 0 0

-1.53036e-14 1.54668e-14 0
-1.46549e-14 -1.49658e-13 0
0 0 0

-7.20145e-15 -6.21996e-16 0
-1.42109e-14 7.10543e-14 0
0 0 0

-1.53036e-14 7.99401e-15 0
-1.33227e-14 -1.4122e-13 0
0 0 0

-2.25044e-14 1.88274e-14 0
-2.13163e-14 -4.9738e-14 0
0 0 0

-2.94215e-14 1.52114e-14 0
-6.66134e-15 2.88658e-14 0
0 0 0

-2.25044e-14 1.17172e-14 0
-7.10543e-15 -3.55271e-14 0
0 0 0

-2.94215e-14 8.87346e-15 0
-1.15463e-14 2.39808e-14 0
0 0 0

-1.76295e-14 2.33557e-14 0
-1.95399e-14 5.15143e-14 0
0 0 0

6.51579e-15 2.07034e-14 0
-1.95399e-14 -1.61648e-13 0
0 0 0

-1.76295e-14 5.52395e-14 0
-2.84217e-14 5.68434e-14 0
0 0 0

6.51579e-15 2.16332e-14 0
-2.57572e-14 -1.46549e-13 0
0 0 0

-2.58644e-15 1.95573e-14 0
-1.24345e-14 -4.79616e-14 0
0 0 0

-1.13237e-14 5.63741e-15 0
-1.33227e-14 1.92735e-13 0
0 0 0

-2.58644e-15 7.11112e-15 0
-1.77636e-14 -4.61853e-14 0
0 0 0

-1.13237e-14 8.02698e-15 0
-1.42109e-14 1.91847e-13 0
0 0 0

-4.12599e-15 -3.77714e-16 0
7.10543e-15 8.52651e-14 0
0 0 0

1.15289e-15 1.61469e-15 0
4.88498e-15 -1.37224e-13 0
0 0 0

-4.12599e-15 8.42274e-15 0
0 8.52651e-14 0
0 0 0

1.15289e-15 -3.67117e-15 0
-7.99361e-15 -1.42997e-13 0
0 0 0

-8.69825e-15 2.47566e-15 0
1.06581e-14 -2.4869e-14 0
0 0 0

-1.96869e-14 7.86422e-16 0
-1.77636e-15 2.66454e-14 0
0 0 0

-8.69825e-15 -8.89723e-15 0
0 -3.55271e-14 0
0 0 0

-1.96869e-14 -9.04973e-15 0
-8.88178e-16 3.4639e-14 0
0 0 0

SCALARS active double 1
LOOKUP_TABLE default
1
1
1
1
1
1
1
1
1
1
1
1
1
1
1
1
1
1
1
1
1
1
1
1
1
1
1
1
1
1
1
1
1
1
1
1
1
1
1
1
1
1
1
1
1
1
1
1
1
1
1
1
1
1
1
1
1
1
1
1
1
1
1
1
SCALARS extent double 1
LOOKUP_TABLE default
0.0125
0.0125
0.0125
0.0125
0.0125
0.0125
0.0125
0.0125
0.0125
0.0125
0.0125
0.0125
0.0125
0.0125
0.0125
0.0125
0.0125
0.0125
0.0125
0.0125
0.0125
0.0125
0.0125
0.0125
0.0125
0.0125
0.0125
0.0125
0.0125
0.0125
0.0125
0.0125
0.0125
0.0125
0.0125
0.0125
0.0125
0.0125
0.0125
0.0125
0.0125
0.0125
0.0125
0.0125
0.0125
0.0125
0.0125
0.0125
0.0125
0.0125
0.0125
0.0125
0.0125
0.0125
0.0125
0.0125
0.0125
0.0125
0.0125
0.0125
0.0125
0.0125
0.0125
0.0125
SCALARS pressure double 1
LOOKUP_TABLE default
-3.11466e-11
1.72044e-10
-1.76655e-11
1.61221e-10
-4.88276e-11
-1.45461e-10
-6.43759e-11
-1.4658e-10
5.57145e-11
1.14054e-10
5.5046e-11
1.15768e-10
-6.53545e-11
-2.00791e-11
-6.42414e-11
-1.92996e-11
-4.14867e-12
1.62519e-10
-3.4681e-11
1.65778e-10
-9.33366e-11
-1.55236e-10
-8.73767e-11
-1.62177e-10
8.25422e-11
1.26746e-10
7.66251e-11
1.28599e-10
-8.08726e-11
-3.07049e-11
-8.30097e-11
-2.56812e-11
-3.15857e-11
1.67673e-10
-2.50863e-11
1.60128e-10
-9.11226e-11
-1.57374e-10
-9.311e-11
-1.60836e-10
7.95724e-11
1.2507e-10
8.58382e-11
1.2989e-10
-8.74781e-11
-2.58391e-11
-8.30858e-11
-2.5698e-11
-2.39529e-11
1.5905e-10
-3.10063e-11
1.6947e-10
-6.62046e-11
-1.45356e-10
-5.33515e-11
-1.49598e-10
6.42319e-11
1.16485e-10
6.68126e-11
1.13226e-10
-6.3131e-11
-2.58516e-11
-5.82535e-11
-1.58573e-11
SCALARS density double 1
LOOKUP_TABLE default
1000
1000
1000
1000
1000
1000
1000
1000
1000
1000
1000
1000
1000
1000
1000
1000
1000
1000
1000
1000
1000
1000
1000
1000
1000
1000
1000
1000
1000
1000
1000
1000
1000
1000
1000
1000
1000
1000
1000
1000
1000
1000
1000
1000
1000
1000
1000
1000
1000
1000
1000
1000
1000
1000
1000
1000
1000
1000
1000
1000
1000
1000
1000
1000
