# vtk DataFile Version 3.0
Frame: 21, Time: 0.35
ASCII
DATASET UNSTRUCTURED_GRID
POINTS 64 double
0.523027 0.222952 0 
0.540122 0.24134 0 
0.543007 0.20971 0 
0.561167 0.227737 0 
0.553757 0.259929 0 
0.566501 0.27942 0 
0.575849 0.246749 0 
0.588552 0.267668 0 
0.57828 0.300436 0 
0.590628 0.32258 0 
0.600918 0.289435 0 
0.61276 0.311365 0 
0.604058 0.344687 0 
0.617479 0.366741 0 
0.625823 0.333104 0 
0.64 0.354317 0 
0.562926 0.193347 0 
0.578795 0.211119 0 
0.582482 0.173412 0 
0.597383 0.193568 0 
0.594451 0.229565 0 
0.606919 0.251162 0 
0.612715 0.213468 0 
0.625823 0.235804 0 
0.620095 0.273996 0 
0.632801 0.296414 0 
0.638561 0.259034 0 
0.651896 0.28168 0 
0.646243 0.318522 0 
0.6609 0.339365 0 
0.665742 0.303693 0 
0.680744 0.325265 0 
0.602418 0.15736 0 
0.616556 0.178384 0 
0.621128 0.142729 0 
0.636242 0.164011 0 
0.631335 0.199815 0 
0.64469 0.222063 0 
0.651022 0.185602 0 
0.663613 0.206901 0 
0.65748 0.245221 0 
0.670651 0.267617 0 
0.676556 0.229242 0 
0.690123 0.252141 0 
0.684654 0.289186 0 
0.699569 0.311218 0 
0.703817 0.274514 0 
0.717961 0.296898 0 
0.640817 0.129209 0 
0.656228 0.149981 0 
0.660009 0.113275 0 
0.675596 0.134683 0 
0.671281 0.171201 0 
0.684505 0.193321 0 
0.691557 0.157829 0 
0.705729 0.181436 0 
0.69746 0.216631 0 
0.711452 0.239359 0 
0.718597 0.204627 0 
0.733317 0.226997 0 
0.724362 0.261615 0 
0.736938 0.284173 0 
0.746527 0.249369 0 
0.757856 0.272572 0 
CELLS 64 128
1 0
1 1
1 2
1 3
1 4
1 5
1 6
1 7
1 8
1 9
1 10
1 11
1 12
1 13
1 14
1 15
1 16
1 17
1 18
1 19
1 20
1 21
1 22
1 23
1 24
1 25
1 26
1 27
1 28
1 29
1 30
1 31
1 32
1 33
1 34
1 35
1 36
1 37
1 38
1 39
1 40
1 41
1 42
1 43
1 44
1 45
1 46
1 47
1 48
1 49
1 50
1 51
1 52
1 53
1 54
1 55
1 56
1 57
1 58
1 59
1 60
1 61
1 62
1 63
CELL_TYPES 64
1
1
1
1
1
1
1
1
1
1
1
1
1
1
1
1
1
1
1
1
1
1
1
1
1
1
1
1
1
1
1
1
1
1
1
1
1
1
1
1
1
1
1
1
1
1
1
1
1
1
1
1
1
1
1
1
1
1
1
1
1
1
1
1
POINT_DATA 64
VECTORS displacement double
0.0105274 -0.389548 0 
0.0276224 -0.39616 0 
0.00550745 -0.40279 0 
0.023667 -0.409763 0 
0.0412574 -0.402571 0 
0.0540015 -0.40808 0 
0.0383486 -0.415751 0 
0.0510524 -0.419832 0 
0.0657804 -0.412064 0 
0.078128 -0.41492 0 
0.0634179 -0.423065 0 
0.0752596 -0.426135 0 
0.0915581 -0.417813 0 
0.104979 -0.420759 0 
0.0883226 -0.429396 0 
0.1025 -0.433183 0 
0.000425741 -0.419153 0 
0.0162951 -0.426381 0 
-0.00501816 -0.439088 0 
0.00988293 -0.443932 0 
0.0319512 -0.432935 0 
0.0444188 -0.436338 0 
0.0252154 -0.449032 0 
0.0383234 -0.451696 0 
0.0575951 -0.438504 0 
0.0703012 -0.441086 0 
0.0510611 -0.453466 0 
0.0643958 -0.45582 0 
0.0837429 -0.443978 0 
0.0983996 -0.448135 0 
0.0782422 -0.458807 0 
0.0932439 -0.462235 0 
-0.0100823 -0.45514 0 
0.00405614 -0.459116 0 
-0.0163718 -0.469771 0 
-0.00125833 -0.473489 0 
0.0188346 -0.462685 0 
0.03219 -0.465437 0 
0.0135217 -0.476898 0 
0.0261131 -0.480599 0 
0.0449802 -0.467279 0 
0.0581509 -0.469883 0 
0.0390558 -0.483258 0 
0.0526229 -0.485359 0 
0.072154 -0.473314 0 
0.0870688 -0.476282 0 
0.0663168 -0.487986 0 
0.0804612 -0.490602 0 
-0.0216828 -0.483291 0 
-0.00627225 -0.487519 0 
-0.0274907 -0.499225 0 
-0.0119041 -0.502817 0 
0.0087807 -0.491299 0 
0.0220048 -0.494179 0 
0.00405702 -0.504671 0 
0.0182286 -0.506064 0 
0.0349601 -0.495869 0 
0.0489519 -0.498141 0 
0.031097 -0.507873 0 
0.0458174 -0.510503 0 
0.0618624 -0.500885 0 
0.0744381 -0.503327 0 
0.059027 -0.513131 0 
0.0703562 -0.514928 0 
VECTORS velocity double
0.383622 2.51457 0 
1.29606 2.8479 0 
-0.830807 2.08858 0 
0.531128 2.00279 0 
1.1136 2.46137 0 
1.76974 2.52254 0 
0.963147 1.72491 0 
1.3568 1.74437 0 
2.89488 2.6568 0 
3.74466 2.58313 0 
2.02493 1.6425 0 
2.6844 1.25186 0 
4.33566 2.50948 0 
5.28196 1.8576 0 
3.51114 1.14857 0 
4.88034 0.636654 0 
-0.592682 2.29412 0 
0.128295 1.71304 0 
-0.222272 1.8369 0 
-0.0216786 1.52029 0 
0.573242 1.47004 0 
1.13791 1.31246 0 
0.154973 1.38103 0 
0.899273 1.21539 0 
1.81929 1.0878 0 
2.40925 0.850266 0 
1.7759 0.969173 0 
2.27355 0.788583 0 
3.10194 0.841223 0 
4.74564 0.125306 0 
2.72015 0.90401 0 
4.49475 0.174248 0 
-0.279973 2.08503 0 
0.247506 1.81803 0 
-0.600467 2.55632 0 
0.338893 2.11085 0 
0.389739 1.63638 0 
0.702639 1.65164 0 
0.506554 1.69403 0 
0.536652 1.52509 0 
1.748 1.48604 0 
2.31271 1.15482 0 
1.34457 1.34796 0 
2.23944 1.00561 0 
2.56668 0.833311 0 
4.00564 0.0254132 0 
2.69998 0.486045 0 
3.78615 -0.254669 0 
-0.291286 2.17423 0 
0.205158 1.33397 0 
-0.989136 0.902764 0 
-0.611462 0.435372 0 
0.433367 0.998185 0 
0.637522 0.857124 0 
-0.188173 0.0803868 0 
0.005409 -0.469621 0 
1.28737 0.751774 0 
1.94105 0.270322 0 
0.41732 -1.21768 0 
1.02036 -1.74202 0 
2.47236 -0.293188 0 
3.55847 -0.928498 0 
1.83669 -1.83101 0 
3.15943 -2.33023 0 
SCALARS mass double 1
LOOKUP_TABLE default
0.625
0.625
0.625
0.625
0.625
0.625
0.625
0.625
0.625
0.625
0.625
0.625
0.625
0.625
0.625
0.625
0.625
0.625
0.625
0.625
0.625
0.625
0.625
0.625
0.625
0.625
0.625
0.625
0.625
0.625
0.625
0.625
0.625
0.625
0.625
0.625
0.625
0.625
0.625
0.625
0.625
0.625
0.625
0.625
0.625
0.625
0.625
0.625
0.625
0.625
0.625
0.625
0.625
0.625
0.625
0.625
0.625
0.625
0.625
0.625
0.625
0.625
0.625
0.625
SCALARS volume double 1
LOOKUP_TABLE default
0.000619595
0.000617951
0.000614465
0.000589525
0.000610035
0.000615491
0.000584208
0.000603943
0.000639377
0.000627738
0.000617834
0.000626469
0.000642913
0.000636753
0.00062984
0.000644988
0.00065218
0.000607027
0.000699198
0.000628126
0.000605104
0.000615489
0.000587786
0.000621582
0.000623032
0.000613732
0.000641024
0.000607938
0.000636839
0.000623091
0.000635754
0.000602274
0.000568413
0.000636311
0.000616236
0.000659335
0.000593684
0.00060091
0.000633353
0.000636206
0.000610548
0.000592602
0.000663488
0.000662795
0.00061639
0.000613376
0.000631844
0.000601769
0.000626556
0.000640211
0.000634071
0.000648329
0.00062684
0.000629381
0.000658108
0.000653567
0.000643449
0.000645044
0.00065391
0.000664604
0.000624704
0.000598274
0.000656916
0.000638652
VECTORS momentum double
0.239764 1.57161 0 
0.810036 1.77994 0 
-0.519254 1.30536 0 
0.331955 1.25174 0 
0.696003 1.53836 0 
1.10609 1.57659 0 
0.601967 1.07807 0 
0.848003 1.09023 0 
1.8093 1.6605 0 
2.34041 1.61445 0 
1.26558 1.02656 0 
1.67775 0.782415 0 
2.70979 1.56843 0 
3.30123 1.161 0 
2.19446 0.717857 0 
3.05021 0.397909 0 
-0.370426 1.43383 0 
0.0801846 1.07065 0 
-0.13892 1.14807 0 
-0.0135491 0.950181 0 
0.358277 0.918777 0 
0.711195 0.820285 0 
0.096858 0.863146 0 
0.562045 0.759616 0 
1.13705 0.679874 0 
1.50578 0.531416 0 
1.10994 0.605733 0 
1.42097 0.492865 0 
1.93871 0.525764 0 
2.96602 0.0783161 0 
1.70009 0.565006 0 
2.80922 0.108905 0 
-0.174983 1.30314 0 
0.154691 1.13627 0 
-0.375292 1.5977 0 
0.211808 1.31928 0 
0.243587 1.02274 0 
0.439149 1.03227 0 
0.316596 1.05877 0 
0.335407 0.95318 0 
1.0925 0.928776 0 
1.44545 0.721764 0 
0.840354 0.842478 0 
1.39965 0.628506 0 
1.60417 0.520819 0 
2.50353 0.0158833 0 
1.68749 0.303778 0 
2.36634 -0.159168 0 
-0.182054 1.3589 0 
0.128224 0.833732 0 
-0.61821 0.564228 0 
-0.382164 0.272107 0 
0.270854 0.623866 0 
0.398451 0.535703 0 
-0.117608 0.0502417 0 
0.00338063 -0.293513 0 
0.804607 0.469859 0 
1.21316 0.168951 0 
0.260825 -0.761051 0 
0.637723 -1.08877 0 
1.54522 -0.183243 0 
2.22405 -0.580311 0 
1.14793 -1.14438 0 
1.97464 -1.4564 0 
VECTORS body_force double
0 -9.81 0 
0 -9.81 0 
0 -9.81 0 
0 -9.81 0 
0 -9.81 0 
0 -9.81 0 
0 -9.81 0 
0 -9.81 0 
0 -9.81 0 
0 -9.81 0 
0 -9.81 0 
0 -9.81 0 
0 -9.81 0 
0 -9.81 0 
0 -9.81 0 
0 -9.81 0 
0 -9.81 0 
0 -9.81 0 
0 -9.81 0 
0 -9.81 0 
0 -9.81 0 
0 -9.81 0 
0 -9.81 0 
0 -9.81 0 
0 -9.81 0 
0 -9.81 0 
0 -9.81 0 
0 -9.81 0 
0 -9.81 0 
0 -9.81 0 
0 -9.81 0 
0 -9.81 0 
0 -9.81 0 
0 -9.81 0 
0 -9.81 0 
0 -9.81 0 
0 -9.81 0 
0 -9.81 0 
0 -9.81 0 
0 -9.81 0 
0 -9.81 0 
0 -9.81 0 
0 -9.81 0 
0 -9.81 0 
0 -9.81 0 
0 -9.81 0 
0 -9.81 0 
0 -9.81 0 
0 -9.81 0 
0 -9.81 0 
0 -9.81 0 
0 -9.81 0 
0 -9.81 0 
0 -9.81 0 
0 -9.81 0 
0 -9.81 0 
0 -9.81 0 
0 -9.81 0 
0 -9.81 0 
0 -9.81 0 
0 -9.81 0 
0 -9.81 0 
0 -9.81 0 
0 -9.81 0 
TENSORS cauchy_stress double
3538.17 4611.06 0
4611.06 -5208.42 0
0 0 -501.075

4856.44 -98.7892 0
-98.7892 -7037.75 0
0 0 -654.393

3616.69 4622.79 0
4622.79 -6885.88 0
0 0 -980.757

592.168 3834.21 0
3834.21 -11829.6 0
0 0 -3371.22

4421.3 -3328.94 0
-3328.94 -9081.84 0
0 0 -1398.16

4405.83 -665.907 0
-665.907 -7354.01 0
0 0 -884.457

-8257.43 -2895.12 0
-2895.12 -4722.4 0
0 0 -3893.95

-5625.31 590.129 0
590.129 -965.415 0
0 0 -1977.22

5441.51 1475.97 0
1475.97 -1068.07 0
0 0 1312.03

2803.7 3050.21 0
3050.21 -1962.95 0
0 0 252.226

-2779.05 -890.957 0
-890.957 561.329 0
0 0 -665.316

-744.954 -9.11014 0
-9.11014 1196.48 0
0 0 135.458

5177.22 4735.17 0
4735.17 257.088 0
0 0 1630.29

2753.58 -83.8425 0
-83.8425 829.16 0
0 0 1074.82

1125.96 1246.88 0
1246.88 357.427 0
0 0 445.017

3400.91 -621.401 0
-621.401 2652.95 0
0 0 1816.16

-703.706 -7137.84 0
-7137.84 8889.97 0
0 0 2455.88

-4437.48 -1272.14 0
-1272.14 -1173.67 0
0 0 -1683.35

5605.16 -4687.35 0
-4687.35 15968.3 0
0 0 6472.04

-1313.51 -1812.29 0
-1812.29 2272.82 0
0 0 287.795

-11271.4 -4693.69 0
-4693.69 5050.15 0
0 0 -1866.38

-10451.4 -2419.08 0
-2419.08 7502.46 0
0 0 -884.677

-7716.66 4928.66 0
4928.66 -4088.71 0
0 0 -3541.61

-5596.73 457.386 0
457.386 4542.28 0
0 0 -316.334

-9043.01 991.677 0
991.677 8436.56 0
0 0 -181.936

-8011.33 -1552.7 0
-1552.7 4512.7 0
0 0 -1049.59

-2959.19 2120.54 0
2120.54 7827.51 0
0 0 1460.5

-6767.95 1262.84 0
1262.84 1445.23 0
0 0 -1596.82

-1843.07 378.764 0
378.764 5451.85 0
0 0 1082.63

-256.656 679.832 0
679.832 -331.708 0
0 0 -176.509

-2223.91 2379.75 0
2379.75 5504.71 0
0 0 984.241

-3602.66 3056.82 0
3056.82 -3520.19 0
0 0 -2136.86

-12397.9 -334.94 0
-334.94 -5852.67 0
0 0 -5475.16

-1350.15 3601.06 0
3601.06 4799.45 0
0 0 1034.79

-3902.92 3415.53 0
3415.53 1187.22 0
0 0 -814.71

3266.2 2883.11 0
2883.11 7018.54 0
0 0 3085.42

-7808.29 2288.68 0
2288.68 -2077.22 0
0 0 -2965.65

-10942.7 2521.69 0
2521.69 3383.76 0
0 0 -2267.67

-1640.72 -1305.02 0
-1305.02 4193.99 0
0 0 765.98

-4498.85 -5219.59 0
-5219.59 7916.33 0
0 0 1025.24

-9488.1 1743.35 0
1743.35 4989.15 0
0 0 -1349.68

-9967.2 1004.04 0
1004.04 -269.056 0
0 0 -3070.88

404.699 -453.009 0
-453.009 11087.5 0
0 0 3447.65

1676.37 219.967 0
219.967 9614.89 0
0 0 3387.38

-5799.65 2170.16 0
2170.16 3131.94 0
0 0 -800.314

-4541.03 3988.81 0
3988.81 930.634 0
0 0 -1083.12

-2729.26 2047.52 0
2047.52 4823.7 0
0 0 628.33

-8222.17 4110.32 0
4110.32 937.861 0
0 0 -2185.29

501.608 1481.02 0
1481.02 -23.5654 0
0 0 143.413

604.251 799.937 0
799.937 4020.11 0
0 0 1387.31

-2364.33 599.529 0
599.529 5135.23 0
0 0 831.268

1608.53 3730.79 0
3730.79 5439.04 0
0 0 2114.27

-438.691 1796.65 0
1796.65 1004.12 0
0 0 169.629

-1953.34 1150.76 0
1150.76 3296.77 0
0 0 403.032

3509.34 6440.65 0
6440.65 6416.95 0
0 0 2977.88

2906.27 4184.3 0
4184.3 5688.73 0
0 0 2578.5

2262.78 5198.49 0
5198.49 3331.6 0
0 0 1678.31

2554.42 2305.15 0
2305.15 3516.14 0
0 0 1821.17

5992.5 4853.88 0
4853.88 2703.24 0
0 0 2608.72

9368.68 4412.66 0
4412.66 2446.55 0
0 0 3544.57

-2230.77 227.9 0
227.9 2139.76 0
0 0 -27.3023

-7365.16 3238.58 0
3238.58 -1039.18 0
0 0 -2521.3

5605.73 -56.6556 0
-56.6556 3972.19 0
0 0 2873.38

2096.74 2283.61 0
2283.61 2058.72 0
0 0 1246.64

TENSORS velocity_gradient double
-6.87184 12.7301 0
-8.34858 6.19127 0
0 0 0

-2.16843 17.0369 0
-10.5567 4.16936 0
0 0 0

-10.1913 17.9179 0
-6.7902 3.75574 0
0 0 0

5.43534 19.5562 0
-11.5389 1.62639 0
0 0 0

3.48825 31.6558 0
-14.2791 7.69483 0
0 0 0

2.83017 30.96 0
-17.806 6.49637 0
0 0 0

5.08938 20.2911 0
-13.8312 0.400943 0
0 0 0

3.7498 29.1455 0
-16.4078 3.73788 0
0 0 0

1.47521 30.9333 0
-20.1909 5.33619 0
0 0 0

2.55484 33.3426 0
-21.1512 5.40698 0
0 0 0

4.13883 28.1517 0
-16.819 2.14255 0
0 0 0

5.18446 33.2676 0
-17.2645 3.40611 0
0 0 0

2.96775 33.7361 0
-22.3131 4.62497 0
0 0 0

-1.54198 20.3084 0
-19.9342 -0.721143 0
0 0 0

2.86891 31.9686 0
-21.0036 1.30849 0
0 0 0

0.322439 19.905 0
-22.5473 3.98291 0
0 0 0

5.55003 6.3853 0
-7.13087 -3.01053 0
0 0 0

5.70045 19.268 0
-9.57798 -0.505072 0
0 0 0

4.8601 7.0639 0
-4.05079 -6.04 0
0 0 0

6.09093 7.66775 0
-6.74448 -7.77359 0
0 0 0

5.40749 19.0232 0
-11.7922 -2.32124 0
0 0 0

10.4198 23.1837 0
-7.11902 -1.22034 0
0 0 0

8.87163 19.6554 0
-4.83295 -3.55946 0
0 0 0

10.2241 20.4095 0
-5.74292 -4.0668 0
0 0 0

8.92958 26.2966 0
-10.5409 -1.21154 0
0 0 0

6.69076 25.826 0
-14.6963 -3.02524 0
0 0 0

10.3945 24.4537 0
-7.80916 -4.64823 0
0 0 0

8.67315 23.542 0
-13.1022 -6.2766 0
0 0 0

4.36635 29.7734 0
-18.5856 -2.23622 0
0 0 0

1.09079 27.4899 0
-11.5401 -3.15022 0
0 0 0

8.6231 25.4838 0
-13.0879 -3.78236 0
0 0 0

4.17379 23.0221 0
-12.1308 -2.29418 0
0 0 0

4.20687 7.70178 0
-8.21226 -7.62401 0
0 0 0

6.07986 9.12887 0
-7.84139 -6.27354 0
0 0 0

1.86995 7.11832 0
-13.5945 -3.00917 0
0 0 0

4.81188 10.8817 0
-9.97233 -3.32772 0
0 0 0

7.93781 14.1634 0
-5.03903 -4.18851 0
0 0 0

9.40026 21.5503 0
-5.18862 -4.83434 0
0 0 0

3.95853 12.1977 0
-16.1889 -1.61426 0
0 0 0

3.86161 22.9565 0
-22.7286 -3.11158 0
0 0 0

8.13345 22.6028 0
-16.7931 -4.25619 0
0 0 0

9.0406 23.509 0
-15.211 -5.9506 0
0 0 0

6.346 24.694 0
-19.419 -1.37602 0
0 0 0

8.5347 24.7186 0
-16.3426 -2.78019 0
0 0 0

9.46386 23.7675 0
-13.8757 -5.13526 0
0 0 0

5.87908 18.898 0
-14.9986 -1.21341 0
0 0 0

4.44118 24.1203 0
-24.9458 -3.60274 0
0 0 0

1.19187 22.0419 0
-28.26 -0.522907 0
0 0 0

-0.794658 11.1029 0
-16.1605 0.827919 0
0 0 0

-1.29981 12.7022 0
-23.6437 0.21221 0
0 0 0

-0.431076 12.5509 0
-15.6599 0.0783545 0
0 0 0

-1.13496 12.0541 0
-20.7666 -3.52542 0
0 0 0

0.314543 14.1674 0
-24.1922 -0.85084 0
0 0 0

2.5082 15.4256 0
-23.7536 -0.599236 0
0 0 0

-0.944522 16.1688 0
-24.444 -0.450618 0
0 0 0

-2.40263 16.8067 0
-29.6174 -1.37318 0
0 0 0

3.61116 26.9738 0
-23.87 1.49196 0
0 0 0

-0.0357078 28.1883 0
-35.3441 1.84859 0
0 0 0

-2.71682 27.551 0
-33.6951 0.948537 0
0 0 0

-0.960489 29.9641 0
-34.8207 0.843534 0
0 0 0

0.978957 24.416 0
-33.9475 -0.595511 0
0 0 0

1.2885 24.5779 0
-30.3624 1.28023 0
0 0 0

1.1298 27.4759 0
-34.4244 1.59373 0
0 0 0

0.38889 21.8731 0
-25.514 2.81019 0
0 0 0

SCALARS active double 1
LOOKUP_TABLE default
1
1
1
1
1
1
1
1
1
1
1
1
1
1
1
1
1
1
1
1
1
1
1
1
1
1
1
1
1
1
1
1
1
1
1
1
1
1
1
1
1
1
1
1
1
1
1
1
1
1
1
1
1
1
1
1
1
1
1
1
1
1
1
1
SCALARS extent double 1
LOOKUP_TABLE default
0.0125
0.0125
0.0125
0.0125
0.0125
0.0125
0.0125
0.0125
0.0125
0.0125
0.0125
0.0125
0.0125
0.0125
0.0125
0.0125
0.0125
0.0125
0.0125
0.0125
0.0125
0.0125
0.0125
0.0125
0.0125
0.0125
0.0125
0.0125
0.0125
0.0125
0.0125
0.0125
0.0125
0.0125
0.0125
0.0125
0.0125
0.0125
0.0125
0.0125
0.0125
0.0125
0.0125
0.0125
0.0125
0.0125
0.0125
0.0125
0.0125
0.0125
0.0125
0.0125
0.0125
0.0125
0.0125
0.0125
0.0125
0.0125
0.0125
0.0125
0.0125
0.0125
0.0125
0.0125
SCALARS pressure double 1
LOOKUP_TABLE default
723.775
945.234
1416.65
4869.54
2019.57
1277.55
5624.59
2855.98
-1895.16
-364.326
961.012
-195.662
-2354.87
-1552.52
-642.802
-2623.34
-3547.38
2431.5
-9348.51
-415.704
2695.88
1277.87
5115.66
456.927
262.797
1516.07
-2109.61
2306.51
-1563.81
254.958
-1421.68
3086.57
7908.56
-1494.7
1176.8
-4456.72
4283.72
3275.53
-1106.42
-1480.91
1949.54
4435.71
-4979.93
-4892.88
1156.01
1564.5
-907.588
3156.53
-207.152
-2003.89
-1200.72
-3053.95
-245.019
-582.157
-4301.39
-3724.5
-2424.23
-2630.58
-3768.15
-5119.93
39.4367
3641.88
-4150.43
-1800.7
SCALARS density double 1
LOOKUP_TABLE default
1008.72
1011.41
1017.15
1060.18
1024.53
1015.45
1069.83
1034.87
977.515
995.638
1011.6
997.655
972.137
981.542
992.316
969.01
958.325
1029.61
893.881
995.024
1032.88
1015.45
1063.31
1005.5
1003.16
1018.36
975.002
1028.06
981.409
1003.06
983.085
1037.73
1099.55
982.224
1014.22
947.924
1052.75
1040.09
986.811
982.386
1023.67
1054.67
941.991
942.976
1013.97
1018.95
989.168
1038.6
997.517
976.24
985.695
964.016
997.064
993.038
949.693
956.29
971.328
968.926
955.789
940.41
1000.47
1044.67
951.415
978.623
