# vtk DataFile Version 3.0
Frame: 13, Time: 0.217
ASCII
DATASET UNSTRUCTURED_GRID
POINTS 64 double
0.4125 0.178325 0 
0.4125 0.203325 0 
0.4375 0.178325 0 
0.4375 0.203325 0 
0.4125 0.228325 0 
0.4125 0.253325 0 
0.4375 0.228325 0 
0.4375 0.253325 0 
0.4125 0.278325 0 
0.4125 0.303325 0 
0.4375 0.278325 0 
0.4375 0.303325 0 
0.4125 0.328325 0 
0.4125 0.353325 0 
0.4375 0.328325 0 
0.4375 0.353325 0 
0.4625 0.178325 0 
0.4625 0.203325 0 
0.4875 0.178325 0 
0.4875 0.203325 0 
0.4625 0.228325 0 
0.4625 0.253325 0 
0.4875 0.228325 0 
0.4875 0.253325 0 
0.4625 0.278325 0 
0.4625 0.303325 0 
0.4875 0.278325 0 
0.4875 0.303325 0 
0.4625 0.328325 0 
0.4625 0.353325 0 
0.4875 0.328325 0 
0.4875 0.353325 0 
0.5125 0.178325 0 
0.5125 0.203325 0 
0.5375 0.178325 0 
0.5375 0.203325 0 
0.5125 0.228325 0 
0.5125 0.253325 0 
0.5375 0.228325 0 
0.5375 0.253325 0 
0.5125 0.278325 0 
0.5125 0.303325 0 
0.5375 0.278325 0 
0.5375 0.303325 0 
0.5125 0.328325 0 
0.5125 0.353325 0 
0.5375 0.328325 0 
0.5375 0.353325 0 
0.5625 0.178325 0 
0.5625 0.203325 0 
0.5875 0.178325 0 
0.5875 0.203325 0 
0.5625 0.228325 0 
0.5625 0.253325 0 
0.5875 0.228325 0 
0.5875 0.253325 0 
0.5625 0.278325 0 
0.5625 0.303325 0 
0.5875 0.278325 0 
0.5875 0.303325 0 
0.5625 0.328325 0 
0.5625 0.353325 0 
0.5875 0.328325 0 
0.5875 0.353325 0 
CELLS 64 128
1 0
1 1
1 2
1 3
1 4
1 5
1 6
1 7
1 8
1 9
1 10
1 11
1 12
1 13
1 14
1 15
1 16
1 17
1 18
1 19
1 20
1 21
1 22
1 23
1 24
1 25
1 26
1 27
1 28
1 29
1 30
1 31
1 32
1 33
1 34
1 35
1 36
1 37
1 38
1 39
1 40
1 41
1 42
1 43
1 44
1 45
1 46
1 47
1 48
1 49
1 50
1 51
1 52
1 53
1 54
1 55
1 56
1 57
1 58
1 59
1 60
1 61
1 62
1 63
CELL_TYPES 64
1
1
1
1
1
1
1
1
1
1
1
1
1
1
1
1
1
1
1
1
1
1
1
1
1
1
1
1
1
1
1
1
1
1
1
1
1
1
1
1
1
1
1
1
1
1
1
1
1
1
1
1
1
1
1
1
1
1
1
1
1
1
1
1
POINT_DATA 64
VECTORS displacement double
-1.17349e-16 -0.234175 0 
-9.00441e-17 -0.234175 0 
-1.07058e-16 -0.234175 0 
-8.80003e-17 -0.234175 0 
-6.32837e-17 -0.234175 0 
-6.29281e-17 -0.234175 0 
-6.99038e-17 -0.234175 0 
-6.74198e-17 -0.234175 0 
-6.53961e-17 -0.234175 0 
-6.33096e-17 -0.234175 0 
-6.55186e-17 -0.234175 0 
-6.20694e-17 -0.234175 0 
-4.69777e-17 -0.234175 0 
-3.70355e-17 -0.234175 0 
-5.0571e-17 -0.234175 0 
-3.98357e-17 -0.234175 0 
-1.02992e-16 -0.234175 0 
-8.85756e-17 -0.234175 0 
-1.05149e-16 -0.234175 0 
-9.177e-17 -0.234175 0 
-7.59565e-17 -0.234175 0 
-7.11884e-17 -0.234175 0 
-8.1442e-17 -0.234175 0 
-7.42339e-17 -0.234175 0 
-6.56272e-17 -0.234175 0 
-6.05959e-17 -0.234175 0 
-6.57217e-17 -0.234175 0 
-5.88892e-17 -0.234175 0 
-5.26604e-17 -0.234175 0 
-4.18278e-17 -0.234175 0 
-5.32459e-17 -0.234175 0 
-4.30117e-17 -0.234175 0 
-1.04819e-16 -0.234175 0 
-9.48088e-17 -0.234175 0 
-1.02004e-16 -0.234175 0 
-9.76921e-17 -0.234175 0 
-8.70036e-17 -0.234175 0 
-7.82235e-17 -0.234175 0 
-9.26413e-17 -0.234175 0 
-8.3157e-17 -0.234175 0 
-6.69687e-17 -0.234175 0 
-5.72845e-17 -0.234175 0 
-6.9368e-17 -0.234175 0 
-5.57818e-17 -0.234175 0 
-5.20956e-17 -0.234175 0 
-4.37003e-17 -0.234175 0 
-4.92097e-17 -0.234175 0 
-4.38937e-17 -0.234175 0 
-9.59903e-17 -0.234175 0 
-1.00324e-16 -0.234175 0 
-8.67785e-17 -0.234175 0 
-1.02705e-16 -0.234175 0 
-1.00542e-16 -0.234175 0 
-8.82774e-17 -0.234175 0 
-1.10706e-16 -0.234175 0 
-9.35847e-17 -0.234175 0 
-7.02317e-17 -0.234175 0 
-5.41233e-17 -0.234175 0 
-6.95596e-17 -0.234175 0 
-5.2309e-17 -0.234175 0 
-4.82569e-17 -0.234175 0 
-4.28863e-17 -0.234175 0 
-4.92373e-17 -0.234175 0 
-4.0678e-17 -0.234175 0 
VECTORS velocity double
-8.57296e-15 -2.13858 0 
5.68616e-16 -2.13858 0 
-4.22158e-15 -2.13858 0 
6.45057e-16 -2.13858 0 
4.52852e-15 -2.13858 0 
1.14441e-15 -2.13858 0 
2.51777e-15 -2.13858 0 
1.65141e-15 -2.13858 0 
-5.96887e-16 -2.13858 0 
3.60715e-16 -2.13858 0 
1.09238e-15 -2.13858 0 
9.51744e-16 -2.13858 0 
1.99356e-15 -2.13858 0 
-2.42933e-16 -2.13858 0 
5.83269e-16 -2.13858 0 
-2.94321e-16 -2.13858 0 
-1.85487e-15 -2.13858 0 
3.19232e-16 -2.13858 0 
-1.47284e-15 -2.13858 0 
-4.08858e-16 -2.13858 0 
9.93144e-16 -2.13858 0 
1.52358e-15 -2.13858 0 
-4.53556e-17 -2.13858 0 
7.60927e-16 -2.13858 0 
1.68529e-15 -2.13858 0 
8.84767e-16 -2.13858 0 
1.18183e-15 -2.13858 0 
1.59786e-16 -2.13858 0 
-3.29908e-16 -2.13858 0 
-5.49716e-16 -2.13858 0 
-7.45971e-16 -2.13858 0 
-1.00912e-15 -2.13858 0 
-1.00812e-15 -2.13858 0 
-1.13411e-15 -2.13858 0 
-4.607e-16 -2.13858 0 
-1.85652e-15 -2.13858 0 
-8.90012e-16 -2.13858 0 
-2.48185e-16 -2.13858 0 
-1.54083e-15 -2.13858 0 
-1.50376e-15 -2.13858 0 
2.17669e-16 -2.13858 0 
-4.62167e-16 -2.13858 0 
-1.2072e-15 -2.13858 0 
-9.81092e-16 -2.13858 0 
-5.12806e-16 -2.13858 0 
-9.90085e-16 -2.13858 0 
3.69589e-16 -2.13858 0 
-4.92616e-16 -2.13858 0 
2.0707e-15 -2.13858 0 
-2.29878e-15 -2.13858 0 
6.58608e-15 -2.13858 0 
-2.4609e-15 -2.13858 0 
-3.19477e-15 -2.13858 0 
-2.00638e-15 -2.13858 0 
-5.85184e-15 -2.13858 0 
-1.75606e-15 -2.13858 0 
-1.12547e-15 -2.13858 0 
-9.89328e-16 -2.13858 0 
4.62854e-16 -2.13858 0 
-4.86876e-16 -2.13858 0 
-2.75272e-16 -2.13858 0 
2.02744e-16 -2.13858 0 
-2.44739e-15 -2.13858 0 
1.09599e-15 -2.13858 0 
SCALARS mass double 1
LOOKUP_TABLE default
0.625
0.625
0.625
0.625
0.625
0.625
0.625
0.625
0.625
0.625
0.625
0.625
0.625
0.625
0.625
0.625
0.625
0.625
0.625
0.625
0.625
0.625
0.625
0.625
0.625
0.625
0.625
0.625
0.625
0.625
0.625
0.625
0.625
0.625
0.625
0.625
0.625
0.625
0.625
0.625
0.625
0.625
0.625
0.625
0.625
0.625
0.625
0.625
0.625
0.625
0.625
0.625
0.625
0.625
0.625
0.625
0.625
0.625
0.625
0.625
0.625
0.625
0.625
0.625
SCALARS volume double 1
LOOKUP_TABLE default
0.000625
0.000625
0.000625
0.000625
0.000625
0.000625
0.000625
0.000625
0.000625
0.000625
0.000625
0.000625
0.000625
0.000625
0.000625
0.000625
0.000625
0.000625
0.000625
0.000625
0.000625
0.000625
0.000625
0.000625
0.000625
0.000625
0.000625
0.000625
0.000625
0.000625
0.000625
0.000625
0.000625
0.000625
0.000625
0.000625
0.000625
0.000625
0.000625
0.000625
0.000625
0.000625
0.000625
0.000625
0.000625
0.000625
0.000625
0.000625
0.000625
0.000625
0.000625
0.000625
0.000625
0.000625
0.000625
0.000625
0.000625
0.000625
0.000625
0.000625
0.000625
0.000625
0.000625
0.000625
VECTORS momentum double
-5.3581e-15 -1.33661 0 
3.55385e-16 -1.33661 0 
-2.63848e-15 -1.33661 0 
4.03161e-16 -1.33661 0 
2.83032e-15 -1.33661 0 
7.15255e-16 -1.33661 0 
1.57361e-15 -1.33661 0 
1.03213e-15 -1.33661 0 
-3.73055e-16 -1.33661 0 
2.25447e-16 -1.33661 0 
6.8274e-16 -1.33661 0 
5.9484e-16 -1.33661 0 
1.24598e-15 -1.33661 0 
-1.51833e-16 -1.33661 0 
3.64543e-16 -1.33661 0 
-1.8395e-16 -1.33661 0 
-1.15929e-15 -1.33661 0 
1.9952e-16 -1.33661 0 
-9.20527e-16 -1.33661 0 
-2.55536e-16 -1.33661 0 
6.20715e-16 -1.33661 0 
9.52237e-16 -1.33661 0 
-2.83472e-17 -1.33661 0 
4.75579e-16 -1.33661 0 
1.05331e-15 -1.33661 0 
5.5298e-16 -1.33661 0 
7.38644e-16 -1.33661 0 
9.98664e-17 -1.33661 0 
-2.06192e-16 -1.33661 0 
-3.43572e-16 -1.33661 0 
-4.66232e-16 -1.33661 0 
-6.30699e-16 -1.33661 0 
-6.30074e-16 -1.33661 0 
-7.08817e-16 -1.33661 0 
-2.87938e-16 -1.33661 0 
-1.16032e-15 -1.33661 0 
-5.56258e-16 -1.33661 0 
-1.55116e-16 -1.33661 0 
-9.63017e-16 -1.33661 0 
-9.39849e-16 -1.33661 0 
1.36043e-16 -1.33661 0 
-2.88854e-16 -1.33661 0 
-7.54497e-16 -1.33661 0 
-6.13182e-16 -1.33661 0 
-3.20503e-16 -1.33661 0 
-6.18803e-16 -1.33661 0 
2.30993e-16 -1.33661 0 
-3.07885e-16 -1.33661 0 
1.29419e-15 -1.33661 0 
-1.43674e-15 -1.33661 0 
4.1163e-15 -1.33661 0 
-1.53806e-15 -1.33661 0 
-1.99673e-15 -1.33661 0 
-1.25399e-15 -1.33661 0 
-3.6574e-15 -1.33661 0 
-1.09754e-15 -1.33661 0 
-7.03417e-16 -1.33661 0 
-6.1833e-16 -1.33661 0 
2.89284e-16 -1.33661 0 
-3.04298e-16 -1.33661 0 
-1.72045e-16 -1.33661 0 
1.26715e-16 -1.33661 0 
-1.52962e-15 -1.33661 0 
6.84996e-16 -1.33661 0 
VECTORS body_force double
0 -9.81 0 
0 -9.81 0 
0 -9.81 0 
0 -9.81 0 
0 -9.81 0 
0 -9.81 0 
0 -9.81 0 
0 -9.81 0 
0 -9.81 0 
0 -9.81 0 
0 -9.81 0 
0 -9.81 0 
0 -9.81 0 
0 -9.81 0 
0 -9.81 0 
0 -9.81 0 
0 -9.81 0 
0 -9.81 0 
0 -9.81 0 
0 -9.81 0 
0 -9.81 0 
0 -9.81 0 
0 -9.81 0 
0 -9.81 0 
0 -9.81 0 
0 -9.81 0 
0 -9.81 0 
0 -9.81 0 
0 -9.81 0 
0 -9.81 0 
0 -9.81 0 
0 -9.81 0 
0 -9.81 0 
0 -9.81 0 
0 -9.81 0 
0 -9.81 0 
0 -9.81 0 
0 -9.81 0 
0 -9.81 0 
0 -9.81 0 
0 -9.81 0 
0 -9.81 0 
0 -9.81 0 
0 -9.81 0 
0 -9.81 0 
0 -9.81 0 
0 -9.81 0 
0 -9.81 0 
0 -9.81 0 
0 -9.81 0 
0 -9.81 0 
0 -9.81 0 
0 -9.81 0 
0 -9.81 0 
0 -9.81 0 
0 -9.81 0 
0 -9.81 0 
0 -9.81 0 
0 -9.81 0 
0 -9.81 0 
0 -9.81 0 
0 -9.81 0 
0 -9.81 0 
0 -9.81 0 
TENSORS cauchy_stress double
-2.99926e-12 1.5857e-11 0
1.5857e-11 -1.12547e-10 0
0 0 -3.46639e-11

-7.30991e-11 4.01811e-11 0
4.01811e-11 -1.91527e-10 0
0 0 -7.93877e-11

1.66861e-11 1.00949e-11 0
1.00949e-11 -6.66146e-11 0
0 0 -1.49785e-11

-7.7975e-11 1.54655e-11 0
1.54655e-11 -2.02904e-10 0
0 0 -8.42636e-11

-2.17333e-11 8.55899e-12 0
8.55899e-12 1.7187e-11 0
0 0 -1.36391e-12

1.95755e-11 -3.22313e-11 0
-3.22313e-11 9.17447e-11 0
0 0 3.3396e-11

-1.18298e-11 4.83743e-13 0
4.83743e-13 4.02952e-11 0
0 0 8.53962e-12

2.53961e-11 -2.06406e-11 0
-2.06406e-11 1.05326e-10 0
0 0 3.92167e-11

1.48453e-11 -1.08128e-11 0
-1.08128e-11 3.58953e-11 0
0 0 1.52222e-11

-3.85189e-12 1.19529e-13 0
1.19529e-13 -2.1708e-11 0
0 0 -7.66797e-12

3.00178e-12 -9.10322e-12 0
-9.10322e-12 8.26045e-12 0
0 0 3.37867e-12

1.18119e-11 -3.49384e-12 0
-3.49384e-12 1.48407e-11 0
0 0 7.99578e-12

-8.41791e-12 1.40526e-11 0
1.40526e-11 1.72128e-11 0
0 0 2.63847e-12

-1.9749e-11 1.03761e-13 0
1.03761e-13 -1.73609e-11 0
0 0 -1.1133e-11

-1.39227e-11 -5.59555e-12 0
-5.59555e-12 4.36826e-12 0
0 0 -2.86634e-12

-1.512e-12 6.8545e-12 0
6.8545e-12 2.51921e-11 0
0 0 7.10404e-12

-6.01608e-11 5.45888e-12 0
5.45888e-12 -1.18251e-10 0
0 0 -5.35236e-11

-7.92327e-11 9.1014e-12 0
9.1014e-12 -1.52113e-10 0
0 0 -6.94038e-11

-2.36368e-11 -7.38098e-12 0
-7.38098e-12 -3.30284e-11 0
0 0 -1.69995e-11

-8.47971e-11 1.09304e-11 0
1.09304e-11 -1.65097e-10 0
0 0 -7.49682e-11

1.42644e-11 4.38834e-12 0
4.38834e-12 8.95447e-11 0
0 0 3.11427e-11

1.28291e-11 3.41725e-13 0
3.41725e-13 6.1171e-11 0
0 0 2.22e-11

-4.80928e-12 9.23275e-12 0
9.23275e-12 4.50395e-11 0
0 0 1.20691e-11

1.48643e-11 -7.48603e-13 0
-7.48603e-13 6.59199e-11 0
0 0 2.42353e-11

2.38748e-12 -1.72218e-12 0
-1.72218e-12 6.54077e-12 0
0 0 2.67847e-12

-2.02303e-11 4.82103e-12 0
4.82103e-12 -6.47089e-11 0
0 0 -2.54818e-11

2.96154e-12 8.94039e-12 0
8.94039e-12 7.88024e-12 0
0 0 3.25253e-12

-7.81678e-14 5.15805e-12 0
5.15805e-12 -1.76873e-11 0
0 0 -5.32963e-12

-1.2372e-11 -1.06434e-13 0
-1.06434e-13 -2.2863e-11 0
0 0 -1.05705e-11

-1.79554e-11 -1.10388e-11 0
-1.10388e-11 -2.97532e-11 0
0 0 -1.43126e-11

3.87618e-12 7.33177e-13 0
7.33177e-13 1.50495e-11 0
0 0 5.67769e-12

-1.60274e-11 -6.35638e-12 0
-6.35638e-12 -2.52547e-11 0
0 0 -1.23846e-11

-4.38375e-11 1.47115e-12 0
1.47115e-12 -1.31164e-10 0
0 0 -5.25004e-11

-8.52821e-11 -7.29048e-12 0
-7.29048e-12 -1.69419e-10 0
0 0 -7.64105e-11

-3.97102e-11 -6.36029e-12 0
-6.36029e-12 -1.21534e-10 0
0 0 -4.83731e-11

-8.82877e-11 -3.78474e-12 0
-3.78474e-12 -1.76432e-10 0
0 0 -7.94161e-11

1.1242e-11 -2.1261e-13 0
-2.1261e-13 8.40541e-11 0
0 0 2.85888e-11

2.04744e-11 2.11929e-12 0
2.11929e-12 9.83734e-11 0
0 0 3.56543e-11

-6.47778e-12 1.11359e-11 0
1.11359e-11 4.27079e-11 0
0 0 1.0869e-11

1.66409e-11 1.05819e-11 0
1.05819e-11 8.94286e-11 0
0 0 3.18209e-11

-8.43958e-12 1.02437e-11 0
1.02437e-11 4.91635e-12 0
0 0 -1.05697e-12

-1.74475e-11 -1.88442e-12 0
-1.88442e-12 -5.6123e-11 0
0 0 -2.20711e-11

-8.02656e-13 1.66753e-11 0
1.66753e-11 2.27358e-11 0
0 0 6.57995e-12

1.65742e-12 5.8575e-12 0
5.8575e-12 -1.15448e-11 0
0 0 -2.96622e-12

-9.70151e-12 4.93498e-12 0
4.93498e-12 -5.22367e-11 0
0 0 -1.85815e-11

-1.00373e-11 1.50074e-11 0
1.50074e-11 -2.1437e-11 0
0 0 -9.44228e-12

6.64795e-13 1.12417e-11 0
1.12417e-11 -2.80487e-11 0
0 0 -8.21516e-12

4.51515e-12 1.56486e-11 0
1.56486e-11 1.25188e-11 0
0 0 5.11018e-12

2.56155e-11 2.29936e-12 0
2.29936e-12 -3.47104e-11 0
0 0 -2.72846e-12

-8.43662e-11 -8.17393e-12 0
-8.17393e-12 -1.72434e-10 0
0 0 -7.704e-11

-7.87775e-12 -1.17461e-11 0
-1.17461e-11 -1.12861e-10 0
0 0 -3.62217e-11

-9.32501e-11 -3.83999e-11 0
-3.83999e-11 -1.93163e-10 0
0 0 -8.59239e-11

-9.6703e-12 -4.59793e-12 0
-4.59793e-12 8.16813e-11 0
0 0 2.16033e-11

1.39361e-11 1.48511e-11 0
1.48511e-11 8.69518e-11 0
0 0 3.02664e-11

-3.13044e-11 -1.40322e-12 0
-1.40322e-12 3.12017e-11 0
0 0 -3.08313e-14

3.51979e-11 2.57836e-11 0
2.57836e-11 1.36563e-10 0
0 0 5.15282e-11

-2.72335e-12 7.66699e-12 0
7.66699e-12 -1.32477e-11 0
0 0 -4.79131e-12

-1.42067e-11 -3.64312e-12 0
-3.64312e-12 -5.17572e-11 0
0 0 -1.97892e-11

1.46542e-11 1.21881e-11 0
1.21881e-11 2.72999e-11 0
0 0 1.25862e-11

3.11116e-12 3.04425e-12 0
3.04425e-12 -1.13488e-11 0
0 0 -2.47129e-12

-1.03639e-11 1.21522e-12 0
1.21522e-12 -1.41272e-11 0
0 0 -7.34732e-12

7.63108e-12 -4.70457e-12 0
-4.70457e-12 -4.8427e-12 0
0 0 8.36514e-13

8.13651e-12 -4.86023e-12 0
-4.86023e-12 2.90405e-11 0
0 0 1.11531e-11

1.23933e-11 -2.11079e-12 0
-2.11079e-12 6.26913e-12 0
0 0 5.59873e-12

TENSORS velocity_gradient double
3.50598e-14 7.80605e-14 0
-5.68434e-14 -8.52651e-14 0
0 0 0

2.61648e-14 6.00821e-14 0
-7.01661e-14 -9.85878e-14 0
0 0 0

3.50598e-14 7.1013e-14 0
-7.10543e-14 -8.52651e-14 0
0 0 0

2.61648e-14 4.56443e-14 0
-7.10543e-14 -5.68434e-14 0
0 0 0

1.13551e-14 5.88758e-14 0
-3.90799e-14 -8.17124e-14 0
0 0 0

-8.77087e-16 -2.7758e-15 0
5.32907e-15 2.04281e-13 0
0 0 0

1.13551e-14 4.39422e-14 0
-7.10543e-15 -9.23706e-14 0
0 0 0

-8.77087e-16 -6.9037e-15 0
-2.13163e-14 1.77636e-13 0
0 0 0

-4.46124e-15 -6.91218e-15 0
1.77636e-14 4.61853e-14 0
0 0 0

-7.11914e-15 -1.77751e-14 0
1.77636e-15 -1.40332e-13 0
0 0 0

-4.46124e-15 -1.03151e-14 0
-1.42109e-14 1.42109e-14 0
0 0 0

-7.11914e-15 -1.8198e-14 0
-4.26326e-14 -1.7053e-13 0
0 0 0

-7.39205e-15 -1.85039e-14 0
-3.55271e-15 2.4869e-14 0
0 0 0

-5.24397e-15 -1.69069e-14 0
-3.64153e-14 -7.99361e-15 0
0 0 0

-7.39205e-15 -1.87269e-14 0
-3.55271e-14 2.13163e-14 0
0 0 0

-5.24397e-15 -7.6458e-15 0
-7.10543e-15 -3.55271e-14 0
0 0 0

1.44549e-14 5.31926e-14 0
-1.77636e-14 -3.19744e-14 0
0 0 0

-9.67645e-15 3.30528e-14 0
1.77636e-15 -5.50671e-14 0
0 0 0

1.44549e-14 2.45991e-14 0
-2.84217e-14 -2.84217e-14 0
0 0 0

-9.67645e-15 2.23078e-14 0
-7.10543e-15 -6.39488e-14 0
0 0 0

-1.95234e-14 3.17016e-14 0
-3.19744e-14 -7.4607e-14 0
0 0 0

-2.55382e-14 -6.67589e-15 0
1.24345e-14 1.97176e-13 0
0 0 0

-1.95234e-14 2.2154e-14 0
-4.26326e-14 -5.68434e-14 0
0 0 0

-2.55382e-14 -2.09239e-15 0
1.42109e-14 2.55795e-13 0
0 0 0

-2.02436e-14 -9.25075e-15 0
-7.10543e-15 2.13163e-14 0
0 0 0

-1.5263e-14 -1.67456e-14 0
3.73035e-14 -1.33227e-13 0
0 0 0

-2.02436e-14 -3.71915e-15 0
2.13163e-14 7.81597e-14 0
0 0 0

-1.5263e-14 -1.34178e-14 0
1.77636e-14 -1.52767e-13 0
0 0 0

-1.20462e-14 -1.72484e-14 0
3.19744e-14 3.55271e-15 0
0 0 0

-1.02122e-14 -4.11699e-15 0
-1.24345e-14 4.44089e-14 0
0 0 0

-1.20462e-14 -1.40686e-14 0
1.42109e-14 1.42109e-14 0
0 0 0

-1.02122e-14 -6.3205e-15 0
2.4869e-14 -3.19744e-14 0
0 0 0

1.76891e-14 -6.82519e-15 0
3.19744e-14 -5.32907e-14 0
0 0 0

-1.17378e-14 9.46381e-15 0
3.37508e-14 -5.15143e-14 0
0 0 0

1.76891e-14 -4.10802e-14 0
4.26326e-14 -5.68434e-14 0
0 0 0

-1.17378e-14 -5.47905e-15 0
2.84217e-14 -2.84217e-14 0
0 0 0

-2.57089e-14 1.05567e-14 0
0 -4.26326e-14 0
0 0 0

-3.3796e-14 4.49592e-15 0
-1.59872e-14 2.39808e-13 0
0 0 0

-2.57089e-14 -3.09047e-15 0
7.10543e-15 -4.9738e-14 0
0 0 0

-3.3796e-14 1.3089e-14 0
4.9738e-14 2.20268e-13 0
0 0 0

-2.40838e-14 4.08928e-15 0
-1.42109e-14 5.68434e-14 0
0 0 0

-1.31301e-14 -4.97452e-15 0
-1.24345e-14 -1.97176e-13 0
0 0 0

-2.40838e-14 1.41746e-14 0
2.13163e-14 2.13163e-14 0
0 0 0

-1.31301e-14 8.58442e-15 0
-1.06581e-14 -1.81188e-13 0
0 0 0

6.03658e-16 -5.58264e-15 0
-2.4869e-14 -1.06581e-14 0
0 0 0

9.94278e-15 -9.43201e-15 0
-3.19744e-14 -3.55271e-15 0
0 0 0

6.03658e-16 8.20937e-15 0
-4.26326e-14 -1.42109e-14 0
0 0 0

9.94278e-15 -1.34515e-14 0
-3.19744e-14 1.06581e-14 0
0 0 0

3.74986e-14 -6.25255e-14 0
7.81597e-14 -4.9738e-14 0
0 0 0

2.62057e-14 -2.25828e-14 0
5.9508e-14 -8.26006e-14 0
0 0 0

3.74986e-14 -7.11612e-14 0
7.10543e-14 -7.10543e-14 0
0 0 0

2.62057e-14 -4.18475e-14 0
7.10543e-14 -1.13687e-13 0
0 0 0

6.40622e-15 -1.99029e-14 0
1.42109e-14 -7.10543e-14 0
0 0 0

-8.55575e-15 1.74283e-14 0
-3.01981e-14 2.11386e-13 0
0 0 0

6.40622e-15 -3.98807e-14 0
7.10543e-15 -1.06581e-13 0
0 0 0

-8.55575e-15 1.75138e-14 0
-3.55271e-15 2.23821e-13 0
0 0 0

-7.46069e-15 1.9933e-14 0
-7.10543e-15 3.55271e-14 0
0 0 0

-6.41117e-15 1.53156e-14 0
-1.77636e-15 -1.72307e-13 0
0 0 0

-7.46069e-15 2.13646e-14 0
-2.13163e-14 -2.13163e-14 0
0 0 0

-6.41117e-15 1.52189e-14 0
-2.84217e-14 -2.27374e-13 0
0 0 0

-6.58477e-15 1.50058e-14 0
-2.4869e-14 -2.4869e-14 0
0 0 0

-1.8282e-15 -5.64931e-15 0
-1.59872e-14 -1.59872e-14 0
0 0 0

-6.58477e-15 1.48065e-14 0
-4.9738e-14 3.55271e-14 0
0 0 0

-1.8282e-15 1.39746e-14 0
-4.26326e-14 -1.42109e-14 0
0 0 0

SCALARS active double 1
LOOKUP_TABLE default
1
1
1
1
1
1
1
1
1
1
1
1
1
1
1
1
1
1
1
1
1
1
1
1
1
1
1
1
1
1
1
1
1
1
1
1
1
1
1
1
1
1
1
1
1
1
1
1
1
1
1
1
1
1
1
1
1
1
1
1
1
1
1
1
SCALARS extent double 1
LOOKUP_TABLE default
0.0125
0.0125
0.0125
0.0125
0.0125
0.0125
0.0125
0.0125
0.0125
0.0125
0.0125
0.0125
0.0125
0.0125
0.0125
0.0125
0.0125
0.0125
0.0125
0.0125
0.0125
0.0125
0.0125
0.0125
0.0125
0.0125
0.0125
0.0125
0.0125
0.0125
0.0125
0.0125
0.0125
0.0125
0.0125
0.0125
0.0125
0.0125
0.0125
0.0125
0.0125
0.0125
0.0125
0.0125
0.0125
0.0125
0.0125
0.0125
0.0125
0.0125
0.0125
0.0125
0.0125
0.0125
0.0125
0.0125
0.0125
0.0125
0.0125
0.0125
0.0125
0.0125
0.0125
0.0125
SCALARS pressure double 1
LOOKUP_TABLE default
5.00701e-11
1.14671e-10
2.16357e-11
1.21714e-10
1.9701e-12
-4.82387e-11
-1.2335e-11
-5.66464e-11
-2.19876e-11
1.1076e-11
-4.8803e-12
-1.15495e-11
-3.81113e-12
1.6081e-11
4.14026e-12
-1.02614e-11
7.73119e-11
1.0025e-10
2.45549e-11
1.08287e-10
-4.4984e-11
-3.20667e-11
-1.74331e-11
-3.50065e-11
-3.86891e-12
3.6807e-11
-4.6981e-12
7.69835e-12
1.52685e-11
2.06737e-11
-8.20111e-12
1.78889e-11
7.5834e-11
1.10371e-10
6.98723e-11
1.14712e-10
-4.1295e-11
-5.15007e-11
-1.56997e-11
-4.59635e-11
1.52673e-12
3.18805e-11
-9.50438e-12
4.28454e-12
2.68399e-11
1.36388e-11
1.18663e-11
-7.38137e-12
3.94111e-12
1.1128e-10
5.23202e-11
1.24112e-10
-3.12048e-11
-4.37181e-11
4.4534e-14
-7.44296e-11
6.92078e-12
2.85844e-11
-1.81801e-11
3.56965e-12
1.06128e-11
-1.2083e-12
-1.611e-11
-8.08705e-12
SCALARS density double 1
LOOKUP_TABLE default
1000
1000
1000
1000
1000
1000
1000
1000
1000
1000
1000
1000
1000
1000
1000
1000
1000
1000
1000
1000
1000
1000
1000
1000
1000
1000
1000
1000
1000
1000
1000
1000
1000
1000
1000
1000
1000
1000
1000
1000
1000
1000
1000
1000
1000
1000
1000
1000
1000
1000
1000
1000
1000
1000
1000
1000
1000
1000
1000
1000
1000
1000
1000
1000
