# vtk DataFile Version 3.0
Frame: 17, Time: 0.284
ASCII
DATASET UNSTRUCTURED_GRID
POINTS 64 double
0.512498 0.212892 0 
0.512496 0.237787 0 
0.53751 0.212871 0 
0.537505 0.237777 0 
0.512496 0.262739 0 
0.512498 0.287711 0 
0.537502 0.262734 0 
0.5375 0.287709 0 
0.512499 0.3127 0 
0.5125 0.337696 0 
0.5375 0.3127 0 
0.5375 0.337696 0 
0.5125 0.362694 0 
0.5125 0.387694 0 
0.5375 0.362694 0 
0.5375 0.387694 0 
0.562526 0.212844 0 
0.562512 0.237764 0 
0.587548 0.21281 0 
0.587519 0.237748 0 
0.562506 0.262727 0 
0.562502 0.287707 0 
0.587508 0.262719 0 
0.587503 0.287704 0 
0.562501 0.312699 0 
0.5625 0.337695 0 
0.587501 0.312698 0 
0.5875 0.337695 0 
0.5625 0.362694 0 
0.5625 0.387694 0 
0.5875 0.362694 0 
0.5875 0.387694 0 
0.612547 0.212771 0 
0.612519 0.237731 0 
0.637524 0.212725 0 
0.637512 0.237712 0 
0.612508 0.262711 0 
0.612503 0.287701 0 
0.637506 0.262704 0 
0.637502 0.287698 0 
0.612501 0.312696 0 
0.6125 0.337695 0 
0.637501 0.312695 0 
0.6375 0.337694 0 
0.6125 0.362694 0 
0.6125 0.387694 0 
0.6375 0.362694 0 
0.6375 0.387694 0 
0.66251 0.2127 0 
0.662507 0.2377 0 
0.687505 0.212696 0 
0.687504 0.237696 0 
0.662505 0.262698 0 
0.662502 0.287696 0 
0.687503 0.262696 0 
0.687502 0.287695 0 
0.662501 0.312695 0 
0.6625 0.337694 0 
0.687501 0.312694 0 
0.6875 0.337694 0 
0.6625 0.362694 0 
0.6625 0.387694 0 
0.6875 0.362694 0 
0.6875 0.387694 0 
CELLS 64 128
1 0
1 1
1 2
1 3
1 4
1 5
1 6
1 7
1 8
1 9
1 10
1 11
1 12
1 13
1 14
1 15
1 16
1 17
1 18
1 19
1 20
1 21
1 22
1 23
1 24
1 25
1 26
1 27
1 28
1 29
1 30
1 31
1 32
1 33
1 34
1 35
1 36
1 37
1 38
1 39
1 40
1 41
1 42
1 43
1 44
1 45
1 46
1 47
1 48
1 49
1 50
1 51
1 52
1 53
1 54
1 55
1 56
1 57
1 58
1 59
1 60
1 61
1 62
1 63
CELL_TYPES 64
1
1
1
1
1
1
1
1
1
1
1
1
1
1
1
1
1
1
1
1
1
1
1
1
1
1
1
1
1
1
1
1
1
1
1
1
1
1
1
1
1
1
1
1
1
1
1
1
1
1
1
1
1
1
1
1
1
1
1
1
1
1
1
1
POINT_DATA 64
VECTORS displacement double
-2.46802e-06 -0.399608 0 
-4.30707e-06 -0.399713 0 
9.58294e-06 -0.399629 0 
4.58492e-06 -0.399723 0 
-3.61589e-06 -0.399761 0 
-2.02444e-06 -0.399789 0 
2.08037e-06 -0.399766 0 
4.50263e-07 -0.399791 0 
-1.08082e-06 -0.3998 0 
-4.30418e-07 -0.399804 0 
9.89622e-09 -0.3998 0 
-1.90088e-08 -0.399804 0 
-1.72006e-07 -0.399806 0 
-7.60095e-08 -0.399806 0 
-1.82826e-08 -0.399806 0 
-1.08254e-08 -0.399806 0 
2.63208e-05 -0.399656 0 
1.22836e-05 -0.399736 0 
4.77526e-05 -0.39969 0 
1.87935e-05 -0.399752 0 
5.91976e-06 -0.399773 0 
2.04738e-06 -0.399793 0 
7.9027e-06 -0.399781 0 
2.76696e-06 -0.399796 0 
6.90843e-07 -0.399801 0 
2.47457e-07 -0.399805 0 
9.62032e-07 -0.399802 0 
3.6898e-07 -0.399805 0 
8.62135e-08 -0.399806 0 
3.41871e-08 -0.399806 0 
1.41482e-07 -0.399806 0 
5.90282e-08 -0.399806 0 
4.68232e-05 -0.399729 0 
1.87478e-05 -0.399769 0 
2.35873e-05 -0.399775 0 
1.21455e-05 -0.399788 0 
8.05389e-06 -0.399789 0 
2.90906e-06 -0.399799 0 
6.37383e-06 -0.399796 0 
2.47364e-06 -0.399802 0 
1.05669e-06 -0.399804 0 
4.14127e-07 -0.399805 0 
9.74838e-07 -0.399805 0 
3.82897e-07 -0.399806 0 
1.63183e-07 -0.399806 0 
6.97766e-08 -0.399806 0 
1.51317e-07 -0.399806 0 
6.64322e-08 -0.399806 0 
9.65304e-06 -0.3998 0 
7.30612e-06 -0.3998 0 
5.02876e-06 -0.399804 0 
4.23371e-06 -0.399804 0 
4.67368e-06 -0.399802 0 
2.00664e-06 -0.399804 0 
2.95362e-06 -0.399804 0 
1.50811e-06 -0.399805 0 
8.79551e-07 -0.399805 0 
3.52106e-07 -0.399806 0 
7.70834e-07 -0.399806 0 
3.21754e-07 -0.399806 0 
1.42699e-07 -0.399806 0 
6.44595e-08 -0.399806 0 
1.3733e-07 -0.399806 0 
6.38584e-08 -0.399806 0 
VECTORS velocity double
-0.00335647 -2.70186 0 
-0.00385598 -2.76553 0 
0.00224165 -2.7131 0 
0.000776777 -2.76978 0 
-0.00282939 -2.78571 0 
-0.00131098 -2.79122 0 
0.000309815 -2.78709 0 
6.83024e-05 -2.79171 0 
-0.000611133 -2.79355 0 
-0.00023281 -2.79498 0 
-5.03488e-06 -2.79377 0 
-1.50593e-05 -2.79507 0 
-8.77345e-05 -2.79551 0 
-3.74927e-05 -2.7957 0 
-1.11545e-05 -2.79555 0 
-4.83066e-06 -2.79571 0 
0.0117661 -2.72538 0 
0.0041423 -2.77383 0 
0.0252223 -2.73869 0 
0.00624429 -2.77768 0 
0.00175069 -2.78852 0 
0.000770817 -2.79231 0 
0.00149349 -2.78997 0 
0.000796551 -2.79304 0 
0.000333512 -2.79407 0 
0.000109677 -2.79518 0 
0.00040451 -2.79445 0 
0.000141399 -2.79531 0 
3.41625e-05 -2.79559 0 
1.46631e-05 -2.79573 0 
4.82164e-05 -2.79564 0 
2.09884e-05 -2.79575 0 
0.0245492 -2.75819 0 
0.00617414 -2.78319 0 
0.00977599 -2.78383 0 
0.00392825 -2.79037 0 
0.00153297 -2.7915 0 
0.000817276 -2.79377 0 
0.00186909 -2.7931 0 
0.000833023 -2.79449 0 
0.000415533 -2.79481 0 
0.000149336 -2.79544 0 
0.00036658 -2.79517 0 
0.000133487 -2.79558 0 
5.29766e-05 -2.79569 0 
2.34392e-05 -2.79577 0 
4.84431e-05 -2.79573 0 
2.20156e-05 -2.79579 0 
0.00200496 -2.79644 0 
0.00234129 -2.79435 0 
0.00124219 -2.796 0 
0.00141641 -2.79513 0 
0.00171904 -2.79429 0 
0.000747129 -2.79501 0 
0.00108288 -2.79508 0 
0.000559583 -2.79534 0 
0.000323294 -2.79541 0 
0.00012234 -2.79566 0 
0.000285674 -2.79554 0 
0.000115896 -2.79571 0 
4.69568e-05 -2.79577 0 
2.19332e-05 -2.79581 0 
4.85178e-05 -2.79578 0 
2.31922e-05 -2.79581 0 
SCALARS mass double 1
LOOKUP_TABLE default
0.625
0.625
0.625
0.625
0.625
0.625
0.625
0.625
0.625
0.625
0.625
0.625
0.625
0.625
0.625
0.625
0.625
0.625
0.625
0.625
0.625
0.625
0.625
0.625
0.625
0.625
0.625
0.625
0.625
0.625
0.625
0.625
0.625
0.625
0.625
0.625
0.625
0.625
0.625
0.625
0.625
0.625
0.625
0.625
0.625
0.625
0.625
0.625
0.625
0.625
0.625
0.625
0.625
0.625
0.625
0.625
0.625
0.625
0.625
0.625
0.625
0.625
0.625
0.625
SCALARS volume double 1
LOOKUP_TABLE default
0.000622559
0.000622941
0.000622817
0.000623187
0.000624403
0.00062446
0.000624485
0.000624522
0.000624918
0.000624917
0.000624929
0.000624927
0.000624989
0.000624989
0.00062499
0.00062499
0.00062342
0.000623428
0.000623902
0.000623782
0.0006245
0.000624563
0.000624634
0.000624671
0.000624924
0.000624932
0.000624943
0.000624948
0.00062499
0.000624991
0.000624992
0.000624993
0.000623375
0.000623928
0.000624066
0.000624519
0.000624676
0.000624751
0.000624809
0.00062486
0.000624951
0.000624959
0.000624968
0.000624973
0.000624993
0.000624994
0.000624995
0.000624996
0.000624883
0.000624912
0.000624895
0.00062493
0.000624894
0.00062493
0.000624933
0.000624965
0.000624979
0.000624983
0.000624985
0.000624988
0.000624997
0.000624997
0.000624997
0.000624998
VECTORS momentum double
-0.00209779 -1.68866 0 
-0.00240999 -1.72846 0 
0.00140103 -1.69569 0 
0.000485486 -1.73111 0 
-0.00176837 -1.74107 0 
-0.000819361 -1.74451 0 
0.000193634 -1.74193 0 
4.2689e-05 -1.74482 0 
-0.000381958 -1.74597 0 
-0.000145506 -1.74686 0 
-3.1468e-06 -1.74611 0 
-9.41208e-06 -1.74692 0 
-5.48341e-05 -1.7472 0 
-2.3433e-05 -1.74731 0 
-6.97154e-06 -1.74722 0 
-3.01916e-06 -1.74732 0 
0.00735382 -1.70336 0 
0.00258894 -1.73364 0 
0.0157639 -1.71168 0 
0.00390268 -1.73605 0 
0.00109418 -1.74282 0 
0.000481761 -1.7452 0 
0.000933429 -1.74373 0 
0.000497845 -1.74565 0 
0.000208445 -1.74629 0 
6.85482e-05 -1.74699 0 
0.000252819 -1.74653 0 
8.83746e-05 -1.74707 0 
2.13516e-05 -1.74724 0 
9.16441e-06 -1.74733 0 
3.01353e-05 -1.74727 0 
1.31177e-05 -1.74734 0 
0.0153432 -1.72387 0 
0.00385884 -1.73949 0 
0.00610999 -1.73989 0 
0.00245515 -1.74398 0 
0.000958105 -1.74469 0 
0.000510798 -1.7461 0 
0.00116818 -1.74569 0 
0.000520639 -1.74655 0 
0.000259708 -1.74676 0 
9.3335e-05 -1.74715 0 
0.000229113 -1.74698 0 
8.34294e-05 -1.74723 0 
3.31104e-05 -1.7473 0 
1.46495e-05 -1.74736 0 
3.02769e-05 -1.74733 0 
1.37597e-05 -1.74737 0 
0.0012531 -1.74777 0 
0.00146331 -1.74647 0 
0.000776371 -1.7475 0 
0.000885253 -1.74696 0 
0.0010744 -1.74643 0 
0.000466956 -1.74688 0 
0.000676803 -1.74692 0 
0.000349739 -1.74709 0 
0.000202059 -1.74713 0 
7.64627e-05 -1.74729 0 
0.000178546 -1.74721 0 
7.2435e-05 -1.74732 0 
2.9348e-05 -1.74735 0 
1.37083e-05 -1.74738 0 
3.03236e-05 -1.74736 0 
1.44951e-05 -1.74738 0 
VECTORS body_force double
0 -9.81 0 
0 -9.81 0 
0 -9.81 0 
0 -9.81 0 
0 -9.81 0 
0 -9.81 0 
0 -9.81 0 
0 -9.81 0 
0 -9.81 0 
0 -9.81 0 
0 -9.81 0 
0 -9.81 0 
0 -9.81 0 
0 -9.81 0 
0 -9.81 0 
0 -9.81 0 
0 -9.81 0 
0 -9.81 0 
0 -9.81 0 
0 -9.81 0 
0 -9.81 0 
0 -9.81 0 
0 -9.81 0 
0 -9.81 0 
0 -9.81 0 
0 -9.81 0 
0 -9.81 0 
0 -9.81 0 
0 -9.81 0 
0 -9.81 0 
0 -9.81 0 
0 -9.81 0 
0 -9.81 0 
0 -9.81 0 
0 -9.81 0 
0 -9.81 0 
0 -9.81 0 
0 -9.81 0 
0 -9.81 0 
0 -9.81 0 
0 -9.81 0 
0 -9.81 0 
0 -9.81 0 
0 -9.81 0 
0 -9.81 0 
0 -9.81 0 
0 -9.81 0 
0 -9.81 0 
0 -9.81 0 
0 -9.81 0 
0 -9.81 0 
0 -9.81 0 
0 -9.81 0 
0 -9.81 0 
0 -9.81 0 
0 -9.81 0 
0 -9.81 0 
0 -9.81 0 
0 -9.81 0 
0 -9.81 0 
0 -9.81 0 
0 -9.81 0 
0 -9.81 0 
0 -9.81 0 
TENSORS cauchy_stress double
-188.66 -34.6227 0
-34.6227 -563.737 0
0 0 -225.719

-163.028 -17.7813 0
-17.7813 -471.573 0
0 0 -190.38

-164.828 -39.6687 0
-39.6687 -508.136 0
0 0 -201.889

-140.224 -22.2521 0
-22.2521 -418.367 0
0 0 -167.577

-37.5779 -4.89922 0
-4.89922 -146.097 0
0 0 -55.1024

-42.2819 -0.357076 0
-0.357076 -124.038 0
0 0 -49.8959

-30.0133 -10.0534 0
-10.0534 -128.449 0
0 0 -47.5387

-36.5543 -4.79593 0
-4.79593 -110.674 0
0 0 -44.1686

-4.22656 -0.0216474 0
-0.0216474 -21.0486 0
0 0 -7.58254

-6.3512 0.547722 0
0.547722 -19.039 0
0 0 -7.61707

-3.15893 -1.10234 0
-1.10234 -18.5575 0
0 0 -6.51493

-5.46822 -0.400082 0
-0.400082 -16.9788 0
0 0 -6.7341

-0.525004 0.0148286 0
0.0148286 -2.80166 0
0 0 -0.997998

-0.82809 0.0782736 0
0.0782736 -2.60076 0
0 0 -1.02866

-0.404706 -0.12536 0
-0.12536 -2.52096 0
0 0 -0.877701

-0.723289 -0.0466389 0
-0.0466389 -2.35623 0
0 0 -0.923855

-80.2082 -75.1946 0
-75.1946 -406.647 0
0 0 -146.056

-125.3 -42.6413 0
-42.6413 -359.06 0
0 0 -145.308

-35.5168 -100.102 0
-100.102 -302.506 0
0 0 -101.407

-92.5185 -61.0458 0
-61.0458 -282.635 0
0 0 -112.546

-40.0463 -18.62 0
-18.62 -113.768 0
0 0 -46.1443

-38.1562 -9.72975 0
-9.72975 -96.4095 0
0 0 -40.3697

-27.6799 -20.6593 0
-20.6593 -84.9156 0
0 0 -33.7787

-28.1839 -11.4274 0
-11.4274 -73.1421 0
0 0 -30.3978

-6.18028 -2.4471 0
-2.4471 -17.2019 0
0 0 -7.01465

-5.86672 -1.25144 0
-1.25144 -14.9354 0
0 0 -6.24062

-4.46488 -2.68318 0
-2.68318 -13.1993 0
0 0 -5.29927

-4.42478 -1.46558 0
-1.46558 -11.5709 0
0 0 -4.79869

-0.766171 -0.328306 0
-0.328306 -2.35459 0
0 0 -0.936228

-0.79398 -0.177348 0
-0.177348 -2.1074 0
0 0 -0.870414

-0.549117 -0.376346 0
-0.376346 -1.84813 0
0 0 -0.719174

-0.605701 -0.220629 0
-0.220629 -1.66808 0
0 0 -0.682135

-221.765 -116.577 0
-116.577 -278.836 0
0 0 -150.18

-119.391 -64.5015 0
-64.5015 -210.84 0
0 0 -99.0694

-157.897 -88.6927 0
-88.6927 -129.687 0
0 0 -86.2752

-64.7213 -44.1274 0
-44.1274 -83.2122 0
0 0 -44.38

-35.0922 -20.4413 0
-20.4413 -64.6421 0
0 0 -29.9203

-24.3676 -11.2926 0
-11.2926 -52.3914 0
0 0 -23.0277

-22.8357 -18.4001 0
-18.4001 -36.0416 0
0 0 -17.6632

-14.269 -9.69572 0
-9.69572 -28.8271 0
0 0 -12.9288

-4.73821 -2.59908 0
-2.59908 -10.2161 0
0 0 -4.4863

-3.87459 -1.48855 0
-1.48855 -8.72038 0
0 0 -3.77849

-3.1982 -2.51689 0
-2.51689 -6.62276 0
0 0 -2.94629

-2.57111 -1.42187 0
-1.42187 -5.67893 0
0 0 -2.47501

-0.701924 -0.37757 0
-0.37757 -1.51611 0
0 0 -0.665412

-0.576225 -0.231192 0
-0.231192 -1.31022 0
0 0 -0.565935

-0.5016 -0.363926 0
-0.363926 -1.04869 0
0 0 -0.465088

-0.402018 -0.2196 0
-0.2196 -0.903741 0
0 0 -0.391728

-24.9924 -10.3089 0
-10.3089 -10.8823 0
0 0 -10.7624

-17.5366 -9.53393 0
-9.53393 -9.40404 0
0 0 -8.08219

-23.8858 -7.91063 0
-7.91063 -8.29894 0
0 0 -9.65542

-15.9502 -7.195 0
-7.195 -5.70146 0
0 0 -6.49551

-15.1003 -8.14278 0
-8.14278 -17.5915 0
0 0 -9.80756

-7.95319 -5.24269 0
-5.24269 -13.4444 0
0 0 -6.41927

-11.4636 -6.17432 0
-6.17432 -9.10497 0
0 0 -6.17056

-4.74234 -3.59804 0
-3.59804 -5.95198 0
0 0 -3.2083

-2.27898 -1.4326 0
-1.4326 -4.20255 0
0 0 -1.94446

-1.66264 -0.963057 0
-0.963057 -3.56819 0
0 0 -1.56925

-1.69138 -1.3064 0
-1.3064 -2.83148 0
0 0 -1.35686

-1.15864 -0.857596 0
-0.857596 -2.3922 0
0 0 -1.06525

-0.330754 -0.205099 0
-0.205099 -0.716687 0
0 0 -0.314232

-0.269272 -0.145641 0
-0.145641 -0.622136 0
0 0 -0.267422

-0.259352 -0.197385 0
-0.197385 -0.550083 0
0 0 -0.24283

-0.20753 -0.139376 0
-0.139376 -0.478071 0
0 0 -0.20568

TENSORS velocity_gradient double
0.176468 -0.0250702 0
-0.32068 -1.41595 0
0 0 0

0.139688 -0.0250684 0
-0.147373 -1.41596 0
0 0 0

0.176487 -0.0619635 0
-0.320766 -1.24211 0
0 0 0

0.139697 -0.0619584 0
-0.147419 -1.24214 0
0 0 0

0.0951016 0.0292246 0
-0.0607512 -0.376288 0
0 0 0

0.0457746 0.0292229 0
-0.0270865 -0.376287 0
0 0 0

0.0951081 -0.0201458 0
-0.0607556 -0.342593 0
0 0 0

0.0457767 -0.0201436 0
-0.0270879 -0.342595 0
0 0 0

0.0198809 0.0117045 0
-0.0105274 -0.0636076 0
0 0 0

0.00837108 0.0117043 0
-0.00446775 -0.0636076 0
0 0 0

0.0198811 0.000193227 0
-0.0105276 -0.0575472 0
0 0 0

0.00837114 0.000193242 0
-0.00446779 -0.0575472 0
0 0 0

0.00301194 0.00183468 0
-0.00164054 -0.00950485 0
0 0 0

0.00142922 0.00183468 0
-0.000798029 -0.00950485 0
0 0 0

0.00301195 0.000251935 0
-0.00164054 -0.00866232 0
0 0 0

0.00142922 0.000251935 0
-0.00079803 -0.00866232 0
0 0 0

0.276348 -0.164611 0
-0.410434 -1.06167 0
0 0 0

0.108511 -0.164545 0
-0.223903 -1.06174 0
0 0 0

0.276506 -0.332906 0
-0.410609 -0.874629 0
0 0 0

0.108581 -0.332767 0
-0.223981 -0.874784 0
0 0 0

0.0331537 -0.0542243 0
-0.113224 -0.293596 0
0 0 0

0.0143707 -0.0542224 0
-0.0489694 -0.293603 0
0 0 0

0.0331576 -0.0730183 0
-0.113237 -0.229304 0
0 0 0

0.014372 -0.0730158 0
-0.0489739 -0.229312 0
0 0 0

0.0054494 -0.00699637 0
-0.018109 -0.0493354 0
0 0 0

0.00258149 -0.00699633 0
-0.00774698 -0.0493355 0
0 0 0

0.00544948 -0.00986451 0
-0.0181093 -0.0389725 0
0 0 0

0.00258152 -0.00986447 0
-0.00774707 -0.0389726 0
0 0 0

0.00113491 -0.000826398 0
-0.00288443 -0.0074981 0
0 0 0

0.000560993 -0.000826397 0
-0.00139852 -0.0074981 0
0 0 0

0.00113491 -0.00140032 0
-0.00288443 -0.00601218 0
0 0 0

0.000560994 -0.00140032 0
-0.00139853 -0.00601218 0
0 0 0

-0.289811 -0.323247 0
-0.699786 -0.587652 0
0 0 0

-0.103387 -0.323397 0
-0.313645 -0.587961 0
0 0 0

-0.29002 -0.136752 0
-0.700218 -0.201364 0
0 0 0

-0.103469 -0.136812 0
-0.313816 -0.201488 0
0 0 0

-0.0229449 -0.0746579 0
-0.122317 -0.161178 0
0 0 0

-0.00744829 -0.07466 0
-0.0503762 -0.161187 0
0 0 0

-0.0229479 -0.0591578 0
-0.122331 -0.0892209 0
0 0 0

-0.00744927 -0.0591593 0
-0.0503808 -0.0892278 0
0 0 0

-0.00115362 -0.0109756 0
-0.0169953 -0.028936 0
0 0 0

-0.000507803 -0.0109756 0
-0.00728563 -0.0289362 0
0 0 0

-0.00115363 -0.0103297 0
-0.0169955 -0.019226 0
0 0 0

-0.000507808 -0.0103297 0
-0.0072857 -0.0192261 0
0 0 0

-0.000184207 -0.0016244 0
-0.00273011 -0.00457377 0
0 0 0

-5.84536e-05 -0.0016244 0
-0.00133922 -0.00457377 0
0 0 0

-0.000184207 -0.00149864 0
-0.00273011 -0.00318287 0
0 0 0

-5.84537e-05 -0.00149864 0
-0.00133922 -0.00318288 0
0 0 0

-0.0687883 -0.0327152 0
-0.073147 -0.00326752 0
0 0 0

-0.0471113 -0.0327165 0
-0.0630218 -0.00326814 0
0 0 0

-0.0687905 -0.0110407 0
-0.073148 0.00685651 0
0 0 0

-0.0471133 -0.0110411 0
-0.0630227 0.0068563 0
0 0 0

-0.0276041 -0.0423192 0
-0.0436727 -0.0407435 0
0 0 0

-0.00942777 -0.0423203 0
-0.0186632 -0.0407451 0
0 0 0

-0.0276051 -0.0241426 0
-0.0436741 -0.0157336 0
0 0 0

-0.00942816 -0.0241432 0
-0.0186638 -0.0157345 0
0 0 0

-0.00176515 -0.00940286 0
-0.00670457 -0.0123979 0
0 0 0

-0.000557275 -0.00940287 0
-0.00275834 -0.012398 0
0 0 0

-0.00176516 -0.00819497 0
-0.00670461 -0.00845163 0
0 0 0

-0.000557278 -0.00819498 0
-0.00275835 -0.00845167 0
0 0 0

-6.0674e-05 -0.00140583 0
-0.000954184 -0.00224298 0
0 0 0

-7.99743e-07 -0.00140583 0
-0.000465278 -0.00224298 0
0 0 0

-6.06741e-05 -0.00134595 0
-0.000954184 -0.00175407 0
0 0 0

-7.9977e-07 -0.00134595 0
-0.000465278 -0.00175407 0
0 0 0

SCALARS active double 1
LOOKUP_TABLE default
1
1
1
1
1
1
1
1
1
1
1
1
1
1
1
1
1
1
1
1
1
1
1
1
1
1
1
1
1
1
1
1
1
1
1
1
1
1
1
1
1
1
1
1
1
1
1
1
1
1
1
1
1
1
1
1
1
1
1
1
1
1
1
1
SCALARS extent double 1
LOOKUP_TABLE default
0.0125
0.0125
0.0125
0.0125
0.0125
0.0125
0.0125
0.0125
0.0125
0.0125
0.0125
0.0125
0.0125
0.0125
0.0125
0.0125
0.0125
0.0125
0.0125
0.0125
0.0125
0.0125
0.0125
0.0125
0.0125
0.0125
0.0125
0.0125
0.0125
0.0125
0.0125
0.0125
0.0125
0.0125
0.0125
0.0125
0.0125
0.0125
0.0125
0.0125
0.0125
0.0125
0.0125
0.0125
0.0125
0.0125
0.0125
0.0125
0.0125
0.0125
0.0125
0.0125
0.0125
0.0125
0.0125
0.0125
0.0125
0.0125
0.0125
0.0125
0.0125
0.0125
0.0125
0.0125
SCALARS pressure double 1
LOOKUP_TABLE default
326.039
274.994
291.618
242.056
79.5924
72.0719
68.6671
63.7991
10.9526
11.0024
9.41045
9.72703
1.44155
1.48584
1.26779
1.33446
210.97
209.89
146.477
162.566
66.6529
58.3118
48.7914
43.9079
10.1323
9.01423
7.65449
6.93144
1.35233
1.25726
1.03881
0.985306
216.927
143.1
124.62
64.1045
43.2182
33.2623
25.5135
18.675
6.48021
5.45782
4.25575
3.57502
0.96115
0.817461
0.671793
0.565829
15.5457
11.6743
13.9467
9.38241
14.1665
9.27229
8.91303
4.63421
2.80866
2.26669
1.95991
1.5387
0.453891
0.386277
0.350755
0.297093
SCALARS density double 1
LOOKUP_TABLE default
1003.92
1003.31
1003.51
1002.91
1000.96
1000.87
1000.82
1000.77
1000.13
1000.13
1000.11
1000.12
1000.02
1000.02
1000.02
1000.02
1002.53
1002.52
1001.76
1001.95
1000.8
1000.7
1000.59
1000.53
1000.12
1000.11
1000.09
1000.08
1000.02
1000.02
1000.01
1000.01
1002.61
1001.72
1001.5
1000.77
1000.52
1000.4
1000.31
1000.22
1000.08
1000.07
1000.05
1000.04
1000.01
1000.01
1000.01
1000.01
1000.19
1000.14
1000.17
1000.11
1000.17
1000.11
1000.11
1000.06
1000.03
1000.03
1000.02
1000.02
1000.01
1000
1000
1000
