# vtk DataFile Version 3.0
Frame: 12, Time: 0.2
ASCII
DATASET UNSTRUCTURED_GRID
POINTS 64 double
0.5125 0.413347 0 
0.5125 0.438347 0 
0.5375 0.413347 0 
0.5375 0.438347 0 
0.5125 0.463347 0 
0.5125 0.488347 0 
0.5375 0.463347 0 
0.5375 0.488347 0 
0.5125 0.513347 0 
0.5125 0.538347 0 
0.5375 0.513347 0 
0.5375 0.538347 0 
0.5125 0.563347 0 
0.5125 0.588347 0 
0.5375 0.563347 0 
0.5375 0.588347 0 
0.5625 0.413347 0 
0.5625 0.438347 0 
0.5875 0.413347 0 
0.5875 0.438347 0 
0.5625 0.463347 0 
0.5625 0.488347 0 
0.5875 0.463347 0 
0.5875 0.488347 0 
0.5625 0.513347 0 
0.5625 0.538347 0 
0.5875 0.513347 0 
0.5875 0.538347 0 
0.5625 0.563347 0 
0.5625 0.588347 0 
0.5875 0.563347 0 
0.5875 0.588347 0 
0.6125 0.413347 0 
0.6125 0.438347 0 
0.6375 0.413347 0 
0.6375 0.438347 0 
0.6125 0.463347 0 
0.6125 0.488347 0 
0.6375 0.463347 0 
0.6375 0.488347 0 
0.6125 0.513347 0 
0.6125 0.538347 0 
0.6375 0.513347 0 
0.6375 0.538347 0 
0.6125 0.563347 0 
0.6125 0.588347 0 
0.6375 0.563347 0 
0.6375 0.588347 0 
0.6625 0.413347 0 
0.6625 0.438347 0 
0.6875 0.413347 0 
0.6875 0.438347 0 
0.6625 0.463347 0 
0.6625 0.488347 0 
0.6875 0.463347 0 
0.6875 0.488347 0 
0.6625 0.513347 0 
0.6625 0.538347 0 
0.6875 0.513347 0 
0.6875 0.538347 0 
0.6625 0.563347 0 
0.6625 0.588347 0 
0.6875 0.563347 0 
0.6875 0.588347 0 
CELLS 64 128
1 0
1 1
1 2
1 3
1 4
1 5
1 6
1 7
1 8
1 9
1 10
1 11
1 12
1 13
1 14
1 15
1 16
1 17
1 18
1 19
1 20
1 21
1 22
1 23
1 24
1 25
1 26
1 27
1 28
1 29
1 30
1 31
1 32
1 33
1 34
1 35
1 36
1 37
1 38
1 39
1 40
1 41
1 42
1 43
1 44
1 45
1 46
1 47
1 48
1 49
1 50
1 51
1 52
1 53
1 54
1 55
1 56
1 57
1 58
1 59
1 60
1 61
1 62
1 63
CELL_TYPES 64
1
1
1
1
1
1
1
1
1
1
1
1
1
1
1
1
1
1
1
1
1
1
1
1
1
1
1
1
1
1
1
1
1
1
1
1
1
1
1
1
1
1
1
1
1
1
1
1
1
1
1
1
1
1
1
1
1
1
1
1
1
1
1
1
POINT_DATA 64
VECTORS displacement double
-1.03324e-16 -0.199153 0 
-4.5431e-17 -0.199153 0 
-9.98443e-17 -0.199153 0 
-3.96882e-17 -0.199153 0 
1.52429e-17 -0.199153 0 
7.16394e-17 -0.199153 0 
2.66239e-17 -0.199153 0 
7.8111e-17 -0.199153 0 
1.42227e-16 -0.199153 0 
1.87098e-16 -0.199153 0 
1.32107e-16 -0.199153 0 
1.71448e-16 -0.199153 0 
1.95179e-16 -0.199153 0 
2.25717e-16 -0.199153 0 
1.89915e-16 -0.199153 0 
2.2657e-16 -0.199153 0 
-9.44206e-17 -0.199153 0 
-3.70631e-17 -0.199153 0 
-8.70532e-17 -0.199153 0 
-3.75557e-17 -0.199153 0 
2.55433e-17 -0.199153 0 
7.32803e-17 -0.199153 0 
1.20012e-17 -0.199153 0 
5.71474e-17 -0.199153 0 
1.17881e-16 -0.199153 0 
1.55406e-16 -0.199153 0 
9.95481e-17 -0.199153 0 
1.38972e-16 -0.199153 0 
1.83017e-16 -0.199153 0 
2.22993e-16 -0.199153 0 
1.74486e-16 -0.199153 0 
2.14987e-16 -0.199153 0 
-8.09459e-17 -0.199153 0 
-3.83931e-17 -0.199153 0 
-7.60988e-17 -0.199153 0 
-3.95753e-17 -0.199153 0 
-8.28408e-19 -0.199153 0 
4.17901e-17 -0.199153 0 
-1.29455e-17 -0.199153 0 
2.72084e-17 -0.199153 0 
8.11439e-17 -0.199153 0 
1.21771e-16 -0.199153 0 
6.26687e-17 -0.199153 0 
1.03804e-16 -0.199153 0 
1.65453e-16 -0.199153 0 
2.06388e-16 -0.199153 0 
1.5592e-16 -0.199153 0 
1.97198e-16 -0.199153 0 
-7.46262e-17 -0.199153 0 
-3.75888e-17 -0.199153 0 
-7.65281e-17 -0.199153 0 
-3.24335e-17 -0.199153 0 
-1.42286e-17 -0.199153 0 
2.17385e-17 -0.199153 0 
-4.67774e-18 -0.199153 0 
2.53804e-17 -0.199153 0 
4.74153e-17 -0.199153 0 
8.53966e-17 -0.199153 0 
3.53839e-17 -0.199153 0 
6.65487e-17 -0.199153 0 
1.47317e-16 -0.199153 0 
1.91686e-16 -0.199153 0 
1.39644e-16 -0.199153 0 
1.8985e-16 -0.199153 0 
VECTORS velocity double
1.60822e-14 -1.97181 0 
-4.00441e-15 -1.97181 0 
3.53081e-15 -1.97181 0 
-5.3646e-15 -1.97181 0 
-2.36193e-14 -1.97181 0 
-1.30599e-14 -1.97181 0 
-1.00074e-14 -1.97181 0 
-5.19392e-15 -1.97181 0 
7.55758e-15 -1.97181 0 
7.81237e-15 -1.97181 0 
3.6898e-15 -1.97181 0 
4.07953e-15 -1.97181 0 
-4.19214e-15 -1.97181 0 
-1.4886e-15 -1.97181 0 
-5.5632e-16 -1.97181 0 
3.38893e-16 -1.97181 0 
-3.3155e-15 -1.97181 0 
-5.15548e-15 -1.97181 0 
-4.45671e-15 -1.97181 0 
-3.37705e-15 -1.97181 0 
-2.93677e-15 -1.97181 0 
-1.12134e-15 -1.97181 0 
-2.40747e-15 -1.97181 0 
-8.42115e-16 -1.97181 0 
1.53768e-15 -1.97181 0 
2.10903e-15 -1.97181 0 
1.10121e-15 -1.97181 0 
1.90089e-15 -1.97181 0 
1.33663e-15 -1.97181 0 
1.81366e-15 -1.97181 0 
1.48672e-15 -1.97181 0 
2.93571e-15 -1.97181 0 
-4.8235e-15 -1.97181 0 
-8.77545e-16 -1.97181 0 
-4.41588e-15 -1.97181 0 
2.34305e-15 -1.97181 0 
-9.39154e-16 -1.97181 0 
-2.19688e-17 -1.97181 0 
1.46819e-15 -1.97181 0 
1.3391e-15 -1.97181 0 
6.95941e-16 -1.97181 0 
1.77037e-15 -1.97181 0 
3.21862e-16 -1.97181 0 
1.71747e-15 -1.97181 0 
1.76304e-15 -1.97181 0 
3.69666e-15 -1.97181 0 
2.16559e-15 -1.97181 0 
4.09652e-15 -1.97181 0 
-9.39722e-15 -1.97181 0 
4.86398e-15 -1.97181 0 
-1.97675e-14 -1.97181 0 
6.68526e-15 -1.97181 0 
1.01401e-14 -1.97181 0 
6.06471e-15 -1.97181 0 
2.50766e-14 -1.97181 0 
1.41549e-14 -1.97181 0 
-1.79582e-15 -1.97181 0 
-2.95647e-16 -1.97181 0 
-5.65712e-15 -1.97181 0 
-4.26899e-15 -1.97181 0 
4.26061e-15 -1.97181 0 
4.85835e-15 -1.97181 0 
8.04811e-15 -1.97181 0 
5.98215e-15 -1.97181 0 
SCALARS mass double 1
LOOKUP_TABLE default
0.625
0.625
0.625
0.625
0.625
0.625
0.625
0.625
0.625
0.625
0.625
0.625
0.625
0.625
0.625
0.625
0.625
0.625
0.625
0.625
0.625
0.625
0.625
0.625
0.625
0.625
0.625
0.625
0.625
0.625
0.625
0.625
0.625
0.625
0.625
0.625
0.625
0.625
0.625
0.625
0.625
0.625
0.625
0.625
0.625
0.625
0.625
0.625
0.625
0.625
0.625
0.625
0.625
0.625
0.625
0.625
0.625
0.625
0.625
0.625
0.625
0.625
0.625
0.625
SCALARS volume double 1
LOOKUP_TABLE default
0.000625
0.000625
0.000625
0.000625
0.000625
0.000625
0.000625
0.000625
0.000625
0.000625
0.000625
0.000625
0.000625
0.000625
0.000625
0.000625
0.000625
0.000625
0.000625
0.000625
0.000625
0.000625
0.000625
0.000625
0.000625
0.000625
0.000625
0.000625
0.000625
0.000625
0.000625
0.000625
0.000625
0.000625
0.000625
0.000625
0.000625
0.000625
0.000625
0.000625
0.000625
0.000625
0.000625
0.000625
0.000625
0.000625
0.000625
0.000625
0.000625
0.000625
0.000625
0.000625
0.000625
0.000625
0.000625
0.000625
0.000625
0.000625
0.000625
0.000625
0.000625
0.000625
0.000625
0.000625
VECTORS momentum double
1.00514e-14 -1.23238 0 
-2.50275e-15 -1.23238 0 
2.20675e-15 -1.23238 0 
-3.35287e-15 -1.23238 0 
-1.47621e-14 -1.23238 0 
-8.16241e-15 -1.23238 0 
-6.25461e-15 -1.23238 0 
-3.2462e-15 -1.23238 0 
4.72349e-15 -1.23238 0 
4.88273e-15 -1.23238 0 
2.30613e-15 -1.23238 0 
2.54971e-15 -1.23238 0 
-2.62009e-15 -1.23238 0 
-9.30375e-16 -1.23238 0 
-3.477e-16 -1.23238 0 
2.11808e-16 -1.23238 0 
-2.07219e-15 -1.23238 0 
-3.22218e-15 -1.23238 0 
-2.78544e-15 -1.23238 0 
-2.11066e-15 -1.23238 0 
-1.83548e-15 -1.23238 0 
-7.00835e-16 -1.23238 0 
-1.50467e-15 -1.23238 0 
-5.26322e-16 -1.23238 0 
9.61051e-16 -1.23238 0 
1.31815e-15 -1.23238 0 
6.88259e-16 -1.23238 0 
1.18805e-15 -1.23238 0 
8.35395e-16 -1.23238 0 
1.13354e-15 -1.23238 0 
9.29199e-16 -1.23238 0 
1.83482e-15 -1.23238 0 
-3.01469e-15 -1.23238 0 
-5.48466e-16 -1.23238 0 
-2.75993e-15 -1.23238 0 
1.4644e-15 -1.23238 0 
-5.86971e-16 -1.23238 0 
-1.37305e-17 -1.23238 0 
9.17617e-16 -1.23238 0 
8.3694e-16 -1.23238 0 
4.34963e-16 -1.23238 0 
1.10648e-15 -1.23238 0 
2.01164e-16 -1.23238 0 
1.07342e-15 -1.23238 0 
1.1019e-15 -1.23238 0 
2.31041e-15 -1.23238 0 
1.35349e-15 -1.23238 0 
2.56033e-15 -1.23238 0 
-5.87326e-15 -1.23238 0 
3.03999e-15 -1.23238 0 
-1.23547e-14 -1.23238 0 
4.17829e-15 -1.23238 0 
6.33756e-15 -1.23238 0 
3.79045e-15 -1.23238 0 
1.56729e-14 -1.23238 0 
8.84679e-15 -1.23238 0 
-1.12239e-15 -1.23238 0 
-1.8478e-16 -1.23238 0 
-3.5357e-15 -1.23238 0 
-2.66812e-15 -1.23238 0 
2.66288e-15 -1.23238 0 
3.03647e-15 -1.23238 0 
5.03007e-15 -1.23238 0 
3.73884e-15 -1.23238 0 
VECTORS body_force double
0 -9.81 0 
0 -9.81 0 
0 -9.81 0 
0 -9.81 0 
0 -9.81 0 
0 -9.81 0 
0 -9.81 0 
0 -9.81 0 
0 -9.81 0 
0 -9.81 0 
0 -9.81 0 
0 -9.81 0 
0 -9.81 0 
0 -9.81 0 
0 -9.81 0 
0 -9.81 0 
0 -9.81 0 
0 -9.81 0 
0 -9.81 0 
0 -9.81 0 
0 -9.81 0 
0 -9.81 0 
0 -9.81 0 
0 -9.81 0 
0 -9.81 0 
0 -9.81 0 
0 -9.81 0 
0 -9.81 0 
0 -9.81 0 
0 -9.81 0 
0 -9.81 0 
0 -9.81 0 
0 -9.81 0 
0 -9.81 0 
0 -9.81 0 
0 -9.81 0 
0 -9.81 0 
0 -9.81 0 
0 -9.81 0 
0 -9.81 0 
0 -9.81 0 
0 -9.81 0 
0 -9.81 0 
0 -9.81 0 
0 -9.81 0 
0 -9.81 0 
0 -9.81 0 
0 -9.81 0 
0 -9.81 0 
0 -9.81 0 
0 -9.81 0 
0 -9.81 0 
0 -9.81 0 
0 -9.81 0 
0 -9.81 0 
0 -9.81 0 
0 -9.81 0 
0 -9.81 0 
0 -9.81 0 
0 -9.81 0 
0 -9.81 0 
0 -9.81 0 
0 -9.81 0 
0 -9.81 0 
TENSORS cauchy_stress double
8.01775e-11 -4.93706e-11 0
-4.93706e-11 1.5139e-10 0
0 0 6.94702e-11

-2.97096e-11 -3.5761e-11 0
-3.5761e-11 -1.28223e-10 0
0 0 -4.73799e-11

8.90022e-11 -5.06348e-11 0
-5.06348e-11 1.71981e-10 0
0 0 7.82948e-11

9.16798e-12 -1.67187e-11 0
-1.67187e-11 -3.7509e-11 0
0 0 -8.50231e-12

-1.5852e-11 -2.00381e-11 0
-2.00381e-11 -1.53716e-10 0
0 0 -5.08704e-11

3.18331e-12 5.91838e-11 0
5.91838e-11 -5.89477e-11 0
0 0 -1.67293e-11

9.49673e-12 -1.30442e-11 0
-1.30442e-11 -9.4569e-11 0
0 0 -2.55217e-11

4.08487e-11 8.50252e-12 0
8.50252e-12 2.89382e-11 0
0 0 2.09361e-11

-1.22616e-10 3.49307e-11 0
3.49307e-11 -1.82315e-10 0
0 0 -9.14792e-11

-2.47693e-11 -2.81811e-11 0
-2.81811e-11 1.02719e-10 0
0 0 2.33849e-11

-8.99154e-11 2.40265e-11 0
2.40265e-11 -1.06013e-10 0
0 0 -5.87786e-11

-1.92801e-11 -1.67113e-11 0
-1.67113e-11 1.15527e-10 0
0 0 2.88741e-11

1.00025e-11 -2.46618e-11 0
-2.46618e-11 7.73289e-11 0
0 0 2.61994e-11

-5.08984e-11 1.47642e-11 0
1.47642e-11 -1.2751e-10 0
0 0 -5.35227e-11

-4.20132e-12 -9.45042e-12 0
-9.45042e-12 4.41868e-11 0
0 0 1.19956e-11

-4.58639e-11 2.17834e-11 0
2.17834e-11 -1.15763e-10 0
0 0 -4.84882e-11

1.12118e-10 1.88533e-11 0
1.88533e-11 1.86044e-10 0
0 0 8.94487e-11

-3.3527e-11 2.05574e-11 0
2.05574e-11 -7.3177e-11 0
0 0 -3.20112e-11

9.87271e-11 1.4823e-11 0
1.4823e-11 1.54799e-10 0
0 0 7.6058e-11

-3.04638e-11 1.08034e-12 0
1.08034e-12 -6.60294e-11 0
0 0 -2.89479e-11

-1.15289e-10 8.86831e-12 0
8.86831e-12 -1.30113e-10 0
0 0 -7.36206e-11

-6.63028e-11 -7.78698e-12 0
-7.78698e-12 1.07595e-11 0
0 0 -1.6663e-11

-9.65764e-11 -1.41273e-11 0
-1.41273e-11 -8.64515e-11 0
0 0 -5.49084e-11

-4.78272e-11 -1.59414e-11 0
-1.59414e-11 5.38693e-11 0
0 0 1.81263e-12

-1.26679e-10 -1.29664e-11 0
-1.29664e-11 -1.07554e-10 0
0 0 -7.02699e-11

-1.96202e-11 -2.44578e-11 0
-2.44578e-11 1.22775e-10 0
0 0 3.09463e-11

-1.02893e-10 -1.61377e-11 0
-1.61377e-11 -5.20514e-11 0
0 0 -4.64832e-11

-1.09989e-11 -1.01052e-11 0
-1.01052e-11 1.42891e-10 0
0 0 3.95676e-11

-8.39518e-12 -1.32247e-11 0
-1.32247e-11 6.79169e-11 0
0 0 1.78565e-11

-9.20145e-11 1.69153e-12 0
1.69153e-12 -1.32584e-10 0
0 0 -6.73795e-11

-1.42263e-11 -1.14565e-12 0
-1.14565e-12 5.43111e-11 0
0 0 1.20254e-11

-8.9904e-11 9.39131e-12 0
9.39131e-12 -1.27659e-10 0
0 0 -6.5269e-11

9.50758e-11 7.32515e-12 0
7.32515e-12 1.7213e-10 0
0 0 8.01617e-11

-2.53569e-11 -1.39575e-12 0
-1.39575e-12 -4.7041e-11 0
0 0 -2.17194e-11

9.71759e-11 6.27811e-12 0
6.27811e-12 1.7703e-10 0
0 0 8.22618e-11

-2.22633e-11 -1.87417e-11 0
-1.87417e-11 -3.98224e-11 0
0 0 -1.86257e-11

-7.94034e-11 8.33929e-12 0
8.33929e-12 -6.09964e-11 0
0 0 -4.21199e-11

-5.98506e-11 1.00942e-12 0
1.00942e-12 9.90433e-12 0
0 0 -1.49839e-11

-1.05548e-10 -3.05845e-12 0
-3.05845e-12 -1.22e-10 0
0 0 -6.82645e-11

-5.34118e-11 8.76072e-13 0
8.76072e-13 2.49281e-11 0
0 0 -8.54512e-12

-9.57101e-11 -8.67175e-12 0
-8.67175e-12 -3.38342e-11 0
0 0 -3.88633e-11

-2.68747e-11 -1.66688e-12 0
-1.66688e-12 1.21569e-10 0
0 0 2.84082e-11

-1.07423e-10 -1.02118e-11 0
-1.02118e-11 -6.11636e-11 0
0 0 -5.05759e-11

-3.26553e-11 1.38531e-11 0
1.38531e-11 1.08081e-10 0
0 0 2.26276e-11

-5.71118e-12 -1.0515e-11 0
-1.0515e-11 8.44502e-11 0
0 0 2.36217e-11

-8.93562e-11 -1.0587e-11 0
-1.0587e-11 -1.14242e-10 0
0 0 -6.10795e-11

-2.52821e-11 -2.52559e-12 0
-2.52559e-12 3.87848e-11 0
0 0 4.05081e-12

-9.76925e-11 -1.67402e-11 0
-1.67402e-11 -1.33693e-10 0
0 0 -6.94158e-11

5.9137e-11 3.56895e-11 0
3.56895e-11 1.57493e-10 0
0 0 6.4989e-11

-3.97002e-12 6.25577e-12 0
6.25577e-12 -6.21384e-11 0
0 0 -1.98325e-11

6.97783e-11 3.71999e-11 0
3.71999e-11 1.82323e-10 0
0 0 7.56303e-11

-1.25833e-11 3.52374e-11 0
3.52374e-11 -8.22361e-11 0
0 0 -2.84458e-11

1.28667e-11 4.91645e-12 0
4.91645e-12 -6.79358e-11 0
0 0 -1.65208e-11

2.05984e-11 -2.98126e-11 0
-2.98126e-11 1.07098e-11 0
0 0 9.39244e-12

-1.03752e-11 1.10441e-11 0
1.10441e-11 -1.22167e-10 0
0 0 -3.97626e-11

1.64302e-11 -5.65413e-11 0
-5.65413e-11 9.84106e-13 0
0 0 5.2243e-12

-9.08646e-11 -2.77232e-11 0
-2.77232e-11 -8.86176e-11 0
0 0 -5.38446e-11

-3.17819e-11 2.11434e-11 0
2.11434e-11 1.19155e-10 0
0 0 2.62118e-11

-1.19719e-10 -5.09502e-11 0
-5.09502e-11 -1.55945e-10 0
0 0 -8.26994e-11

-2.94376e-11 2.52172e-11 0
2.52172e-11 1.24625e-10 0
0 0 2.85561e-11

-2.3922e-12 3.80561e-12 0
3.80561e-12 7.31149e-11 0
0 0 2.12168e-11

-4.95867e-11 -1.85186e-11 0
-1.85186e-11 -9.68747e-11 0
0 0 -4.39384e-11

5.18533e-13 3.64832e-11 0
3.64832e-11 7.99067e-11 0
0 0 2.41276e-11

-6.20351e-11 -2.11935e-11 0
-2.11935e-11 -1.25921e-10 0
0 0 -5.63868e-11

TENSORS velocity_gradient double
-1.13923e-13 -2.65305e-13 0
8.34888e-14 2.25597e-13 0
0 0 0

-1.20828e-14 -2.65305e-13 0
3.55271e-15 2.59348e-13 0
0 0 0

-1.13923e-13 -1.63465e-13 0
7.81597e-14 2.06057e-13 0
0 0 0

-1.20828e-14 -1.63465e-13 0
1.42109e-14 1.84741e-13 0
0 0 0

3.9186e-14 4.07471e-14 0
-2.4869e-14 7.4607e-14 0
0 0 0

5.84955e-14 4.07471e-14 0
-6.75016e-14 7.4607e-14 0
0 0 0

3.9186e-14 6.00567e-14 0
-4.26326e-14 4.26326e-14 0
0 0 0

5.84955e-14 6.00567e-14 0
-7.10543e-14 4.26326e-14 0
0 0 0

4.58743e-14 1.3675e-13 0
-3.01981e-14 -3.57048e-13 0
0 0 0

1.30741e-14 1.3675e-13 0
3.19744e-14 -3.94351e-13 0
0 0 0

4.58743e-14 1.0395e-13 0
-6.03961e-14 -3.16192e-13 0
0 0 0

1.30741e-14 1.0395e-13 0
1.42109e-14 -3.55271e-13 0
0 0 0

1.85561e-14 -8.25181e-14 0
3.90799e-14 2.38032e-13 0
0 0 0

4.82309e-14 -8.25181e-14 0
6.03961e-14 1.74083e-13 0
0 0 0

1.85561e-14 -5.28432e-14 0
2.4869e-14 1.38556e-13 0
0 0 0

4.82309e-14 -5.28432e-14 0
2.84217e-14 1.7053e-13 0
0 0 0

-3.57851e-14 -7.53096e-14 0
2.4869e-14 9.59233e-14 0
0 0 0

3.86847e-14 -7.53096e-14 0
3.90799e-14 1.24345e-13 0
0 0 0

-3.57851e-14 -8.39807e-16 0
7.10543e-15 1.20792e-13 0
0 0 0

3.86847e-14 -8.39807e-16 0
2.84217e-14 1.27898e-13 0
0 0 0

5.96889e-14 6.33194e-14 0
4.26326e-14 4.26326e-14 0
0 0 0

4.69048e-14 6.33194e-14 0
7.10543e-15 2.13163e-14 0
0 0 0

5.96889e-14 5.05354e-14 0
1.77636e-14 1.77636e-14 0
0 0 0

4.69048e-14 5.05354e-14 0
4.26326e-14 4.26326e-14 0
0 0 0

2.47207e-14 7.34872e-14 0
3.19744e-14 -2.94875e-13 0
0 0 0

-3.40395e-15 7.34872e-14 0
-2.84217e-14 -3.2685e-13 0
0 0 0

2.47207e-14 4.53626e-14 0
3.55271e-15 -3.09086e-13 0
0 0 0

-3.40395e-15 4.53626e-14 0
-1.42109e-14 -3.2685e-13 0
0 0 0

3.84861e-15 -2.3201e-14 0
-1.59872e-14 1.82965e-13 0
0 0 0

3.34582e-14 -2.3201e-14 0
1.06581e-14 1.81188e-13 0
0 0 0

3.84861e-15 6.40853e-15 0
-1.77636e-14 1.95399e-13 0
0 0 0

3.34582e-14 6.40853e-15 0
-4.26326e-14 2.13163e-13 0
0 0 0

6.52114e-15 7.34561e-14 0
1.24345e-14 1.1191e-13 0
0 0 0

8.06432e-14 7.34561e-14 0
-2.4869e-14 1.1724e-13 0
0 0 0

6.52114e-15 1.47578e-13 0
-7.10543e-15 9.23706e-14 0
0 0 0

8.06432e-14 1.47578e-13 0
0 7.10543e-14 0
0 0 0

9.23888e-14 3.03064e-14 0
-4.44089e-14 4.08562e-14 0
0 0 0

6.47148e-14 3.03064e-14 0
-7.4607e-14 2.4869e-14 0
0 0 0

9.23888e-14 2.63249e-15 0
-2.13163e-14 7.10543e-15 0
0 0 0

6.47148e-14 2.63249e-15 0
-4.26326e-14 1.42109e-14 0
0 0 0

3.33749e-14 1.44719e-14 0
-4.26326e-14 -2.84217e-13 0
0 0 0

-2.81809e-16 1.44719e-14 0
2.4869e-14 -3.44613e-13 0
0 0 0

3.33749e-14 -1.91848e-14 0
-5.32907e-14 -3.51719e-13 0
0 0 0

-2.81809e-16 -1.91848e-14 0
-2.84217e-14 -3.2685e-13 0
0 0 0

7.59428e-16 3.26978e-14 0
-2.4869e-14 2.02505e-13 0
0 0 0

2.37284e-14 3.26978e-14 0
-1.42109e-14 2.41585e-13 0
0 0 0

7.59428e-16 5.56667e-14 0
1.42109e-14 2.13163e-13 0
0 0 0

2.37284e-14 5.56667e-14 0
-2.84217e-14 2.41585e-13 0
0 0 0

-6.48475e-14 2.38605e-13 0
-2.00728e-13 1.40332e-13 0
0 0 0

4.30839e-14 2.38605e-13 0
-8.17124e-14 1.45661e-13 0
0 0 0

-6.48475e-14 3.46536e-13 0
-1.77636e-13 2.20268e-13 0
0 0 0

4.30839e-14 3.46536e-13 0
-1.13687e-13 1.84741e-13 0
0 0 0

8.29149e-14 -1.28074e-14 0
-5.15143e-14 3.37508e-14 0
0 0 0

7.97091e-14 -1.28074e-14 0
-3.55271e-15 1.06581e-14 0
0 0 0

8.29149e-14 -1.60132e-14 0
-3.19744e-14 6.75016e-14 0
0 0 0

7.97091e-14 -1.60132e-14 0
0 5.68434e-14 0
0 0 0

5.57232e-14 -5.45722e-14 0
-1.77636e-14 -3.58824e-13 0
0 0 0

1.86051e-14 -5.45722e-14 0
-7.4607e-14 -3.58824e-13 0
0 0 0

5.57232e-14 -9.16903e-14 0
-2.13163e-14 -3.90799e-13 0
0 0 0

1.86051e-14 -9.16903e-14 0
-8.52651e-14 -3.83693e-13 0
0 0 0

1.75451e-14 7.80148e-14 0
-9.59233e-14 2.16716e-13 0
0 0 0

3.92722e-14 7.80148e-14 0
-9.59233e-14 2.45137e-13 0
0 0 0

1.75451e-14 9.9742e-14 0
-9.23706e-14 2.34479e-13 0
0 0 0

3.92722e-14 9.9742e-14 0
-1.13687e-13 1.84741e-13 0
0 0 0

SCALARS active double 1
LOOKUP_TABLE default
1
1
1
1
1
1
1
1
1
1
1
1
1
1
1
1
1
1
1
1
1
1
1
1
1
1
1
1
1
1
1
1
1
1
1
1
1
1
1
1
1
1
1
1
1
1
1
1
1
1
1
1
1
1
1
1
1
1
1
1
1
1
1
1
SCALARS extent double 1
LOOKUP_TABLE default
0.0125
0.0125
0.0125
0.0125
0.0125
0.0125
0.0125
0.0125
0.0125
0.0125
0.0125
0.0125
0.0125
0.0125
0.0125
0.0125
0.0125
0.0125
0.0125
0.0125
0.0125
0.0125
0.0125
0.0125
0.0125
0.0125
0.0125
0.0125
0.0125
0.0125
0.0125
0.0125
0.0125
0.0125
0.0125
0.0125
0.0125
0.0125
0.0125
0.0125
0.0125
0.0125
0.0125
0.0125
0.0125
0.0125
0.0125
0.0125
0.0125
0.0125
0.0125
0.0125
0.0125
0.0125
0.0125
0.0125
0.0125
0.0125
0.0125
0.0125
0.0125
0.0125
0.0125
0.0125
SCALARS pressure double 1
LOOKUP_TABLE default
-1.00346e-10
6.84376e-11
-1.13093e-10
1.22811e-11
7.34795e-11
2.41646e-11
3.68647e-11
-3.0241e-11
1.32137e-10
-3.37782e-11
8.49024e-11
-4.1707e-11
-3.78436e-11
7.73105e-11
-1.7327e-11
7.00385e-11
-1.29204e-10
4.62384e-11
-1.09861e-10
4.18137e-11
1.06341e-10
2.40687e-11
7.93121e-11
-2.61825e-12
1.01501e-10
-4.47002e-11
6.71424e-11
-5.71532e-11
-2.57927e-11
9.73259e-11
-1.73701e-11
9.42774e-11
-1.15789e-10
3.13725e-11
-1.18823e-10
2.69038e-11
6.08399e-11
2.16434e-11
9.86043e-11
1.23429e-11
5.61359e-11
-4.10341e-11
7.30541e-11
-3.26843e-11
-3.41202e-11
8.82259e-11
-5.85118e-12
1.00267e-10
-9.3873e-11
2.8647e-11
-1.09244e-10
4.10884e-11
2.38633e-11
-1.35669e-11
5.74348e-11
-7.54622e-12
7.77756e-11
-3.78615e-11
1.19455e-10
-4.12477e-11
-3.06465e-11
6.34666e-11
-3.48509e-11
8.14476e-11
SCALARS density double 1
LOOKUP_TABLE default
1000
1000
1000
1000
1000
1000
1000
1000
1000
1000
1000
1000
1000
1000
1000
1000
1000
1000
1000
1000
1000
1000
1000
1000
1000
1000
1000
1000
1000
1000
1000
1000
1000
1000
1000
1000
1000
1000
1000
1000
1000
1000
1000
1000
1000
1000
1000
1000
1000
1000
1000
1000
1000
1000
1000
1000
1000
1000
1000
1000
1000
1000
1000
1000
