# vtk DataFile Version 3.0
Frame: 31, Time: 0.517
ASCII
DATASET UNSTRUCTURED_GRID
POINTS 64 double
0.967747 0.41307 0 
0.964683 0.384626 0 
0.947295 0.415488 0 
0.942488 0.385395 0 
0.962415 0.358027 0 
0.961482 0.331957 0 
0.940129 0.357109 0 
0.938345 0.330073 0 
0.959209 0.306683 0 
0.955404 0.281905 0 
0.934938 0.303869 0 
0.931644 0.278613 0 
0.954421 0.259459 0 
0.957245 0.240266 0 
0.930355 0.253248 0 
0.934379 0.22843 0 
0.927063 0.416398 0 
0.922723 0.388044 0 
0.907261 0.417375 0 
0.902216 0.389105 0 
0.91928 0.359648 0 
0.916596 0.332666 0 
0.897252 0.361624 0 
0.89443 0.333706 0 
0.911958 0.30545 0 
0.90901 0.278886 0 
0.889855 0.307118 0 
0.886144 0.280534 0 
0.906191 0.251489 0 
0.906588 0.22519 0 
0.882551 0.253748 0 
0.880161 0.226985 0 
0.887591 0.419862 0 
0.880657 0.393353 0 
0.867846 0.423369 0 
0.859879 0.396653 0 
0.876987 0.365813 0 
0.871927 0.337129 0 
0.855669 0.369048 0 
0.849416 0.343987 0 
0.866567 0.31035 0 
0.86283 0.284053 0 
0.844225 0.317282 0 
0.839947 0.29137 0 
0.858078 0.257994 0 
0.853186 0.232508 0 
0.833503 0.266038 0 
0.826267 0.240421 0 
0.847217 0.427744 0 
0.83903 0.402006 0 
0.824157 0.436248 0 
0.816094 0.410763 0 
0.833193 0.37585 0 
0.826248 0.349656 0 
0.810197 0.384681 0 
0.802877 0.358499 0 
0.821232 0.323656 0 
0.816154 0.298319 0 
0.797518 0.33391 0 
0.791551 0.308379 0 
0.808628 0.273701 0 
0.802037 0.248704 0 
0.7842 0.28327 0 
0.778514 0.257662 0 
CELLS 64 128
1 0
1 1
1 2
1 3
1 4
1 5
1 6
1 7
1 8
1 9
1 10
1 11
1 12
1 13
1 14
1 15
1 16
1 17
1 18
1 19
1 20
1 21
1 22
1 23
1 24
1 25
1 26
1 27
1 28
1 29
1 30
1 31
1 32
1 33
1 34
1 35
1 36
1 37
1 38
1 39
1 40
1 41
1 42
1 43
1 44
1 45
1 46
1 47
1 48
1 49
1 50
1 51
1 52
1 53
1 54
1 55
1 56
1 57
1 58
1 59
1 60
1 61
1 62
1 63
CELL_TYPES 64
1
1
1
1
1
1
1
1
1
1
1
1
1
1
1
1
1
1
1
1
1
1
1
1
1
1
1
1
1
1
1
1
1
1
1
1
1
1
1
1
1
1
1
1
1
1
1
1
1
1
1
1
1
1
1
1
1
1
1
1
1
1
1
1
POINT_DATA 64
VECTORS displacement double
0.455247 -0.19943 0 
0.452183 -0.252874 0 
0.409795 -0.197012 0 
0.404988 -0.252105 0 
0.449915 -0.304473 0 
0.448982 -0.355543 0 
0.402629 -0.305391 0 
0.400845 -0.357427 0 
0.446709 -0.405817 0 
0.442904 -0.455595 0 
0.397438 -0.408631 0 
0.394144 -0.458887 0 
0.441921 -0.503041 0 
0.444745 -0.547234 0 
0.392855 -0.509252 0 
0.396879 -0.55907 0 
0.364563 -0.196102 0 
0.360223 -0.249456 0 
0.319761 -0.195125 0 
0.314716 -0.248395 0 
0.35678 -0.302852 0 
0.354096 -0.354834 0 
0.309752 -0.300876 0 
0.30693 -0.353794 0 
0.349458 -0.40705 0 
0.34651 -0.458614 0 
0.302355 -0.405382 0 
0.298644 -0.456966 0 
0.343691 -0.511011 0 
0.344088 -0.56231 0 
0.295051 -0.508752 0 
0.292661 -0.560515 0 
0.275091 -0.192638 0 
0.268157 -0.244147 0 
0.230346 -0.189131 0 
0.222379 -0.240847 0 
0.264487 -0.296687 0 
0.259427 -0.350371 0 
0.218169 -0.293452 0 
0.211916 -0.343513 0 
0.254067 -0.40215 0 
0.25033 -0.453447 0 
0.206725 -0.395218 0 
0.202447 -0.44613 0 
0.245578 -0.504506 0 
0.240686 -0.554992 0 
0.196003 -0.496462 0 
0.188767 -0.547079 0 
0.184717 -0.184756 0 
0.17653 -0.235494 0 
0.136657 -0.176252 0 
0.128594 -0.226737 0 
0.170693 -0.28665 0 
0.163748 -0.337844 0 
0.122697 -0.277819 0 
0.115377 -0.329001 0 
0.158732 -0.388844 0 
0.153654 -0.439181 0 
0.110018 -0.37859 0 
0.104051 -0.429121 0 
0.146128 -0.488799 0 
0.139537 -0.538796 0 
0.0967002 -0.47923 0 
0.0910144 -0.529838 0 
VECTORS velocity double
0.128709 -0.405624 0 
-0.0276313 -1.10863 0 
-0.825358 1.17673 0 
-1.15801 1.03244 0 
0.233377 -0.455383 0 
0.342294 -0.488461 0 
-0.803354 1.28858 0 
-0.431982 0.571222 0 
0.422986 -0.145504 0 
0.0389928 -0.153463 0 
-0.185174 0.675539 0 
-0.786875 0.105619 0 
-0.122791 -0.04155 0 
-0.0604572 -0.559353 0 
-1.1008 0.0323489 0 
0.429148 0.373259 0 
-0.493386 0.575181 0 
-0.895168 0.231706 0 
-0.536728 0.586038 0 
-0.821508 0.0211158 0 
-0.322085 0.726506 0 
0.0975495 -0.0441174 0 
-0.769058 -0.0131418 0 
-0.476575 -0.0460944 0 
0.0961337 0.144507 0 
-0.261194 -0.121603 0 
-0.216208 0.122894 0 
-0.207185 0.0624492 0 
-0.5719 -0.248486 0 
-0.364418 -0.155953 0 
0.0336933 0.0262652 0 
-0.719011 -0.0840927 0 
-0.138354 0.946152 0 
-0.805931 0.633368 0 
0.0228012 1.27396 0 
-1.18406 1.21876 0 
-0.490575 0.540041 0 
-0.300063 1.09712 0 
-0.658674 0.978181 0 
-0.540697 1.25864 0 
0.147406 1.01351 0 
-0.0445391 0.530462 0 
-0.340321 0.616214 0 
-0.184972 0.531244 0 
0.0902442 0.44147 0 
-0.64453 0.35601 0 
-0.179179 0.737352 0 
-1.12995 0.887892 0 
0.679719 1.26381 0 
-0.645264 0.864845 0 
0.597223 2.17836 0 
-0.554751 2.13131 0 
-0.0651983 0.712372 0 
-0.265332 0.752247 0 
0.124354 1.75103 0 
-0.257876 1.5185 0 
-0.427354 0.749659 0 
-0.00147986 0.596409 0 
-0.184667 1.65725 0 
0.297248 1.60396 0 
0.599936 0.639454 0 
-0.419265 0.876247 0 
0.137451 1.90454 0 
-0.379698 2.14377 0 
SCALARS mass double 1
LOOKUP_TABLE default
0.625
0.625
0.625
0.625
0.625
0.625
0.625
0.625
0.625
0.625
0.625
0.625
0.625
0.625
0.625
0.625
0.625
0.625
0.625
0.625
0.625
0.625
0.625
0.625
0.625
0.625
0.625
0.625
0.625
0.625
0.625
0.625
0.625
0.625
0.625
0.625
0.625
0.625
0.625
0.625
0.625
0.625
0.625
0.625
0.625
0.625
0.625
0.625
0.625
0.625
0.625
0.625
0.625
0.625
0.625
0.625
0.625
0.625
0.625
0.625
0.625
0.625
0.625
0.625
SCALARS volume double 1
LOOKUP_TABLE default
0.000466475
0.000488658
0.000615377
0.000583312
0.000512652
0.000485555
0.000577155
0.000584037
0.0005064
0.000516591
0.000600459
0.000551656
0.000543209
0.000484555
0.000562183
0.000644757
0.000538378
0.000540244
0.00056884
0.000575845
0.000569524
0.000566563
0.000602973
0.000583739
0.000571556
0.000585324
0.000600287
0.000637004
0.000612932
0.000669199
0.000632058
0.000645018
0.000533262
0.000556699
0.00053982
0.000559854
0.000575254
0.000607999
0.000588637
0.000609358
0.000594773
0.000584656
0.000591573
0.000578718
0.000634736
0.000665241
0.000659436
0.000644923
0.000613963
0.000591996
0.000628573
0.000605083
0.000605125
0.000590399
0.00061789
0.000631893
0.000620224
0.000620792
0.000630484
0.000610016
0.000628874
0.000636151
0.000636156
0.000623777
VECTORS momentum double
0.0804431 -0.253515 0 
-0.0172695 -0.692891 0 
-0.515849 0.735455 0 
-0.723754 0.645274 0 
0.14586 -0.284615 0 
0.213934 -0.305288 0 
-0.502097 0.805365 0 
-0.269989 0.357014 0 
0.264366 -0.0909397 0 
0.0243705 -0.0959143 0 
-0.115734 0.422212 0 
-0.491797 0.0660117 0 
-0.0767441 -0.0259688 0 
-0.0377858 -0.349596 0 
-0.688 0.0202181 0 
0.268217 0.233287 0 
-0.308366 0.359488 0 
-0.55948 0.144816 0 
-0.335455 0.366274 0 
-0.513443 0.0131973 0 
-0.201303 0.454066 0 
0.0609684 -0.0275734 0 
-0.480661 -0.00821365 0 
-0.297859 -0.028809 0 
0.0600836 0.0903167 0 
-0.163246 -0.0760016 0 
-0.13513 0.0768085 0 
-0.129491 0.0390308 0 
-0.357438 -0.155304 0 
-0.227761 -0.0974703 0 
0.0210583 0.0164158 0 
-0.449382 -0.0525579 0 
-0.0864715 0.591345 0 
-0.503707 0.395855 0 
0.0142508 0.796224 0 
-0.740037 0.761727 0 
-0.30661 0.337526 0 
-0.187539 0.685697 0 
-0.411671 0.611363 0 
-0.337936 0.786652 0 
0.0921289 0.633442 0 
-0.0278369 0.331539 0 
-0.2127 0.385134 0 
-0.115607 0.332028 0 
0.0564026 0.275919 0 
-0.402831 0.222506 0 
-0.111987 0.460845 0 
-0.70622 0.554932 0 
0.424824 0.789878 0 
-0.40329 0.540528 0 
0.373265 1.36147 0 
-0.346719 1.33207 0 
-0.0407489 0.445232 0 
-0.165832 0.470154 0 
0.0777211 1.0944 0 
-0.161173 0.94906 0 
-0.267096 0.468537 0 
-0.000924915 0.372755 0 
-0.115417 1.03578 0 
0.18578 1.00247 0 
0.37496 0.399659 0 
-0.26204 0.547654 0 
0.0859066 1.19034 0 
-0.237311 1.33986 0 
VECTORS body_force double
0 -9.81 0 
0 -9.81 0 
0 -9.81 0 
0 -9.81 0 
0 -9.81 0 
0 -9.81 0 
0 -9.81 0 
0 -9.81 0 
0 -9.81 0 
0 -9.81 0 
0 -9.81 0 
0 -9.81 0 
0 -9.81 0 
0 -9.81 0 
0 -9.81 0 
0 -9.81 0 
0 -9.81 0 
0 -9.81 0 
0 -9.81 0 
0 -9.81 0 
0 -9.81 0 
0 -9.81 0 
0 -9.81 0 
0 -9.81 0 
0 -9.81 0 
0 -9.81 0 
0 -9.81 0 
0 -9.81 0 
0 -9.81 0 
0 -9.81 0 
0 -9.81 0 
0 -9.81 0 
0 -9.81 0 
0 -9.81 0 
0 -9.81 0 
0 -9.81 0 
0 -9.81 0 
0 -9.81 0 
0 -9.81 0 
0 -9.81 0 
0 -9.81 0 
0 -9.81 0 
0 -9.81 0 
0 -9.81 0 
0 -9.81 0 
0 -9.81 0 
0 -9.81 0 
0 -9.81 0 
0 -9.81 0 
0 -9.81 0 
0 -9.81 0 
0 -9.81 0 
0 -9.81 0 
0 -9.81 0 
0 -9.81 0 
0 -9.81 0 
0 -9.81 0 
0 -9.81 0 
0 -9.81 0 
0 -9.81 0 
0 -9.81 0 
0 -9.81 0 
0 -9.81 0 
0 -9.81 0 
TENSORS cauchy_stress double
-47649.2 8722.45 0
8722.45 -8609.97 0
0 0 -16877.8

-37921.7 10630.8 0
10630.8 -9403.26 0
0 0 -14197.5

-15256.8 793.157 0
793.157 12272.9 0
0 0 -895.184

-19761.7 5540.19 0
5540.19 6486.83 0
0 0 -3982.45

-31634.9 14144.6 0
14144.6 -6471.91 0
0 0 -11432

-33692 15517.1 0
15517.1 -14858.1 0
0 0 -14565

-19332.4 -3152.4 0
-3152.4 4016.79 0
0 0 -4594.69

-11528.3 2790.94 0
2790.94 -1507.64 0
0 0 -3910.79

-31010.3 16868 0
16868 -9456.15 0
0 0 -12139.9

-22203.5 21541.3 0
21541.3 -14431.1 0
0 0 -10990.4

-5373.88 4759.52 0
4759.52 -2329.5 0
0 0 -2311.01

-16328.8 5804.36 0
5804.36 -7676.39 0
0 0 -7201.57

-19265.4 31780.9 0
31780.9 -7707.36 0
0 0 -8091.81

-48717 24748 0
24748 -229.316 0
0 0 -14683.9

-12780.3 8648 0
8648 -7589.69 0
0 0 -6111

12117.3 -10187.6 0
-10187.6 -6132.41 0
0 0 1795.46

-27581 5232.13 0
5232.13 -1109.65 0
0 0 -8607.19

-27714.6 6134.37 0
6134.37 -310.483 0
0 0 -8407.51

-21757.6 5324.92 0
5324.92 3651.46 0
0 0 -5431.83

-15188.2 4753.71 0
4753.71 -564.387 0
0 0 -4725.76

-18103.4 3109.52 0
3109.52 228.391 0
0 0 -5362.49

-16997.3 8677.93 0
8677.93 -1880.1 0
0 0 -5663.23

-13824.2 3039.77 0
3039.77 6924.48 0
0 0 -2069.93

-12800.6 82.323 0
82.323 -333.461 0
0 0 -3940.22

-15185.2 8226.26 0
8226.26 -2005.02 0
0 0 -5157.07

-13821.6 -860.882 0
-860.882 1208.81 0
0 0 -3783.84

-10130.1 2200.33 0
2200.33 2371.7 0
0 0 -2327.52

-2987.69 -639.075 0
-639.075 6646.24 0
0 0 1097.56

-6327.02 8519.26 0
8519.26 2577.63 0
0 0 -1124.82

10570 -1958.86 0
-1958.86 2570.4 0
0 0 3942.13

-2747.09 1719.86 0
1719.86 4906.75 0
0 0 647.899

1510.94 -7810.09 0
-7810.09 4551.75 0
0 0 1818.81

-28525.3 3301.02 0
3301.02 -2001.57 0
0 0 -9158.06

-18654.4 4678.69 0
4678.69 -3600.96 0
0 0 -6676.6

-26940 5794.19 0
5794.19 -1236.14 0
0 0 -8452.85

-22018.1 4086.18 0
4086.18 849.774 0
0 0 -6350.5

-23964.4 -301.287 0
-301.287 8014.46 0
0 0 -4784.98

-10231.4 2696.69 0
2696.69 4927.92 0
0 0 -1591.04

-10720.1 1575.39 0
1575.39 -807.293 0
0 0 -3458.22

-3421.05 -1802.08 0
-1802.08 -1453.21 0
0 0 -1462.28

-11422.1 -387.369 0
-387.369 1888.89 0
0 0 -2859.96

-10766.2 1959.52 0
1959.52 -2066.01 0
0 0 -3849.66

-12662.1 2509.64 0
2509.64 2091.67 0
0 0 -3171.13

-10489.3 -3391.37 0
-3391.37 -4306.04 0
0 0 -4438.62

-16.4639 1154.83 0
1154.83 2988.93 0
0 0 891.739

10533.3 -4086.28 0
-4086.28 1466.22 0
0 0 3599.84

1113.11 -3741.74 0
-3741.74 9201.03 0
0 0 3094.24

220.58 -1789.65 0
-1789.65 5813.99 0
0 0 1810.37

-8233.9 297.82 0
297.82 4807.58 0
0 0 -1027.9

-11821.8 -2339.7 0
-2339.7 1388.93 0
0 0 -3129.87

-4416.33 2924.03 0
2924.03 5512.68 0
0 0 328.907

-5929.32 2371.7 0
2371.7 -298.628 0
0 0 -1868.38

-8777.82 -896.566 0
-896.566 2563.09 0
0 0 -1864.42

-14285.8 -3291.62 0
-3291.62 3333.42 0
0 0 -3285.71

-4326.02 -1930.92 0
-1930.92 2125.85 0
0 0 -660.052

-1234.4 -1240.59 0
-1240.59 3343.85 0
0 0 632.833

-7194.4 -6540.92 0
-6540.92 5719.17 0
0 0 -442.568

-1623.3 -1520.25 0
-1520.25 324.293 0
0 0 -389.701

-2001 -1779.53 0
-1779.53 3681.07 0
0 0 504.023

-3490.16 -3649.57 0
-3649.57 -1176.48 0
0 0 -1399.99

966.104 -1533.28 0
-1533.28 222.288 0
0 0 356.517

3590.11 721.488 0
721.488 -189.138 0
0 0 1020.29

1180.53 -93.2051 0
-93.2051 2221.67 0
0 0 1020.66

-2036.28 -5010.45 0
-5010.45 1659.63 0
0 0 -112.996

TENSORS velocity_gradient double
9.9771 -0.573005 0
-7.02918 0.815024 0
0 0 0

8.0895 -3.7205 0
-6.57764 0.277716 0
0 0 0

3.60243 -0.307051 0
-6.09088 1.62577 0
0 0 0

3.30132 -4.94472 0
-3.38553 0.774818 0
0 0 0

5.26395 -3.97054 0
-6.36673 0.29638 0
0 0 0

3.64648 -1.66419 0
-4.74803 3.2786 0
0 0 0

4.75904 -4.81645 0
-1.87449 0.907784 0
0 0 0

3.55912 -3.04626 0
-1.70192 4.16403 0
0 0 0

2.55385 -1.76429 0
-2.59545 3.47581 0
0 0 0

2.9521 1.83032 0
-0.587532 3.73271 0
0 0 0

1.69627 -2.12072 0
-1.93919 4.14235 0
0 0 0

2.02197 2.6987 0
-2.0499 4.17529 0
0 0 0

3.77247 1.86615 0
0.930657 3.77097 0
0 0 0

3.79833 -2.33906 0
1.50418 -3.06162 0
0 0 0

2.93346 1.6785 0
-1.99819 2.72875 0
0 0 0

4.1283 -1.95734 0
-0.288908 -2.27042 0
0 0 0

0.448629 2.03545 0
-5.69208 3.39942 0
0 0 0

3.16841 -3.92935 0
-3.5233 1.82733 0
0 0 0

0.336244 4.62447 0
-5.77346 5.274 0
0 0 0

1.4464 -2.89748 0
-5.95307 2.89498 0
0 0 0

4.63037 -3.7469 0
-2.00787 2.01646 0
0 0 0

3.75461 -4.70947 0
-1.67801 3.9606 0
0 0 0

0.190948 -2.67067 0
-8.21126 3.12722 0
0 0 0

-0.815733 -5.90665 0
-9.44589 3.97316 0
0 0 0

1.72815 -4.39939 0
-1.92958 3.93167 0
0 0 0

2.01403 3.49223 0
-2.04919 4.10375 0
0 0 0

-0.960245 -5.90236 0
-9.38708 4.09059 0
0 0 0

-1.25119 3.56637 0
-9.12323 4.12028 0
0 0 0

3.01128 2.02387 0
-1.92357 2.5902 0
0 0 0

4.2946 -0.54022 0
-0.00973784 0.108491 0
0 0 0

-1.39701 3.59371 0
-8.9974 3.50989 0
0 0 0

3.75904 4.47918 0
-8.31984 1.29114 0
0 0 0

-6.8315 7.83622 0
-12.3475 5.86358 0
0 0 0

-3.05718 -2.00751 0
-12.2941 3.79814 0
0 0 0

-7.42534 11.4837 0
-12.3078 5.6195 0
0 0 0

-3.30965 0.916075 0
-12.3636 4.74454 0
0 0 0

-1.99941 -1.8638 0
-11.2288 3.94287 0
0 0 0

-1.27448 -5.71433 0
-10.2503 4.60712 0
0 0 0

-2.14519 -1.04209 0
-11.3037 4.77163 0
0 0 0

-2.72962 -5.43984 0
-8.88244 4.97056 0
0 0 0

-0.991969 -5.65596 0
-9.47423 4.76749 0
0 0 0

-1.19057 3.13648 0
-9.13431 4.19883 0
0 0 0

-3.30949 -5.35323 0
-9.08199 4.88579 0
0 0 0

-2.67017 3.32976 0
-10.8096 3.43738 0
0 0 0

-1.66906 3.05036 0
-9.04688 4.21457 0
0 0 0

1.63665 10.5915 0
-9.6227 2.07608 0
0 0 0

-1.56452 3.60784 0
-12.8656 2.92029 0
0 0 0

-1.31802 10.8813 0
-14.0437 2.3652 0
0 0 0

-3.54241 13.7855 0
-11.3405 5.68014 0
0 0 0

-5.15033 7.14199 0
-9.51305 5.79889 0
0 0 0

-0.460184 10.8153 0
-11.4558 6.90479 0
0 0 0

-4.36102 9.61328 0
-9.97965 7.35964 0
0 0 0

-4.96143 -0.277953 0
-8.21216 5.80842 0
0 0 0

-4.16277 -3.07292 0
-7.36264 4.72335 0
0 0 0

-5.23707 0.464395 0
-8.62969 6.93291 0
0 0 0

-3.64925 0.61693 0
-5.6633 6.73045 0
0 0 0

-3.57221 -4.85451 0
-8.67514 3.51625 0
0 0 0

-2.9227 1.7691 0
-10.304 1.98581 0
0 0 0

-2.48511 -4.50933 0
-6.05449 1.76302 0
0 0 0

-2.36289 -4.54296 0
-8.53945 1.09315 0
0 0 0

-1.88476 4.69698 0
-12.2701 0.895067 0
0 0 0

-0.976259 7.90566 0
-14.1328 2.24479 0
0 0 0

-1.12258 6.27357 0
-11.9114 -1.92853 0
0 0 0

0.81303 6.66232 0
-15.3491 -2.60393 0
0 0 0

SCALARS active double 1
LOOKUP_TABLE default
1
1
1
1
1
1
1
1
1
1
1
1
1
1
1
1
1
1
1
1
1
1
1
1
1
1
1
1
1
1
1
1
1
1
1
1
1
1
1
1
1
1
1
1
1
1
1
1
1
1
1
1
1
1
1
1
1
1
1
1
1
1
1
1
SCALARS extent double 1
LOOKUP_TABLE default
0.0125
0.0125
0.0125
0.0125
0.0125
0.0125
0.0125
0.0125
0.0125
0.0125
0.0125
0.0125
0.0125
0.0125
0.0125
0.0125
0.0125
0.0125
0.0125
0.0125
0.0125
0.0125
0.0125
0.0125
0.0125
0.0125
0.0125
0.0125
0.0125
0.0125
0.0125
0.0125
0.0125
0.0125
0.0125
0.0125
0.0125
0.0125
0.0125
0.0125
0.0125
0.0125
0.0125
0.0125
0.0125
0.0125
0.0125
0.0125
0.0125
0.0125
0.0125
0.0125
0.0125
0.0125
0.0125
0.0125
0.0125
0.0125
0.0125
0.0125
0.0125
0.0125
0.0125
0.0125
SCALARS pressure double 1
LOOKUP_TABLE default
24379
20507.5
1293.04
5752.43
16512.9
21038.3
6636.78
5648.91
17535.4
15875
3338.13
10402.3
11688.2
21210.1
8827
-2593.45
12432.6
12144.2
7845.97
6826.1
7745.83
8180.22
2989.89
5691.43
7449.1
5465.54
3361.97
-1585.37
1624.74
-5694.19
-935.855
-2627.17
13228.3
9643.98
12209.7
9172.95
6911.64
2298.17
4995.21
2112.18
4131.06
5560.62
4580.52
6411.33
-1288.07
-5199.77
-4469.46
-2614.98
1484.74
4520.92
-475.088
2698.78
2693.05
4746.02
953.409
-914.092
639.265
562.902
-728.033
2022.21
-514.97
-1473.76
-1474.29
163.216
SCALARS density double 1
LOOKUP_TABLE default
1339.84
1279.01
1015.64
1071.47
1219.15
1287.19
1082.9
1070.14
1234.2
1209.85
1040.87
1132.95
1150.57
1289.84
1111.74
969.358
1160.9
1156.88
1098.73
1085.36
1097.41
1103.14
1036.53
1070.68
1093.51
1067.79
1041.17
981.155
1019.69
933.952
988.833
968.966
1172.03
1122.69
1157.79
1116.36
1086.48
1027.96
1061.78
1025.67
1050.82
1069
1056.5
1079.97
984.662
939.51
947.779
969.107
1017.98
1055.75
994.315
1032.92
1032.84
1058.61
1011.51
989.091
1007.7
1006.78
991.302
1024.56
993.839
982.47
982.464
1001.96
