# vtk DataFile Version 3.0
Frame: 19, Time: 0.317
ASCII
DATASET UNSTRUCTURED_GRID
POINTS 64 double
0.402095 0.0328984 0 
0.397212 0.0533611 0 
0.428589 0.0325826 0 
0.423904 0.0531046 0 
0.396843 0.0780746 0 
0.397881 0.102912 0 
0.422703 0.0758685 0 
0.422837 0.0985013 0 
0.399221 0.128285 0 
0.402038 0.153227 0 
0.423656 0.122353 0 
0.425978 0.146423 0 
0.407485 0.178211 0 
0.414009 0.202928 0 
0.430515 0.170965 0 
0.437737 0.196183 0 
0.455221 0.0318543 0 
0.450946 0.0520051 0 
0.48314 0.0301595 0 
0.480488 0.0492533 0 
0.44913 0.0733494 0 
0.448438 0.0942704 0 
0.478677 0.0692363 0 
0.477264 0.0887403 0 
0.448553 0.116539 0 
0.450453 0.139161 0 
0.476379 0.10951 0 
0.477287 0.129965 0 
0.453541 0.162414 0 
0.45983 0.185883 0 
0.478512 0.150979 0 
0.481453 0.171346 0 
0.511094 0.0288795 0 
0.510268 0.047004 0 
0.539066 0.0280499 0 
0.540024 0.0455557 0 
0.508694 0.0658863 0 
0.506781 0.0842857 0 
0.538878 0.0638233 0 
0.536872 0.0816415 0 
0.505154 0.103851 0 
0.504862 0.122781 0 
0.534966 0.100551 0 
0.533463 0.118527 0 
0.50492 0.142136 0 
0.506022 0.161102 0 
0.532304 0.136813 0 
0.532717 0.155343 0 
0.567617 0.0273727 0 
0.570456 0.0443517 0 
0.596619 0.0267344 0 
0.601001 0.043092 0 
0.56954 0.062653 0 
0.567459 0.0807098 0 
0.599971 0.0622144 0 
0.597878 0.0812657 0 
0.565378 0.0995414 0 
0.562309 0.11708 0 
0.59558 0.100408 0 
0.59099 0.117679 0 
0.559505 0.13478 0 
0.558993 0.152383 0 
0.586413 0.135506 0 
0.584879 0.152146 0 
CELLS 64 128
1 0
1 1
1 2
1 3
1 4
1 5
1 6
1 7
1 8
1 9
1 10
1 11
1 12
1 13
1 14
1 15
1 16
1 17
1 18
1 19
1 20
1 21
1 22
1 23
1 24
1 25
1 26
1 27
1 28
1 29
1 30
1 31
1 32
1 33
1 34
1 35
1 36
1 37
1 38
1 39
1 40
1 41
1 42
1 43
1 44
1 45
1 46
1 47
1 48
1 49
1 50
1 51
1 52
1 53
1 54
1 55
1 56
1 57
1 58
1 59
1 60
1 61
1 62
1 63
CELL_TYPES 64
1
1
1
1
1
1
1
1
1
1
1
1
1
1
1
1
1
1
1
1
1
1
1
1
1
1
1
1
1
1
1
1
1
1
1
1
1
1
1
1
1
1
1
1
1
1
1
1
1
1
1
1
1
1
1
1
1
1
1
1
1
1
1
1
POINT_DATA 64
VECTORS displacement double
-0.0104053 -0.379602 0 
-0.0152884 -0.384139 0 
-0.00891076 -0.379917 0 
-0.0135962 -0.384395 0 
-0.0156568 -0.384425 0 
-0.0146189 -0.384588 0 
-0.0147974 -0.386632 0 
-0.0146627 -0.388999 0 
-0.0132794 -0.384215 0 
-0.0104621 -0.384273 0 
-0.0138436 -0.390147 0 
-0.0115216 -0.391077 0 
-0.00501468 -0.384289 0 
0.00150916 -0.384572 0 
-0.0069852 -0.391535 0 
0.000236881 -0.391317 0 
-0.00727851 -0.380646 0 
-0.0115541 -0.385495 0 
-0.00436013 -0.38234 0 
-0.00701157 -0.388247 0 
-0.0133697 -0.389151 0 
-0.0140621 -0.39323 0 
-0.00882297 -0.393264 0 
-0.0102355 -0.39876 0 
-0.0139468 -0.395961 0 
-0.0120473 -0.398339 0 
-0.0111213 -0.40299 0 
-0.0102132 -0.407535 0 
-0.00895914 -0.400086 0 
-0.00266964 -0.401617 0 
-0.00898783 -0.411521 0 
-0.00604736 -0.416154 0 
-0.00140555 -0.38362 0 
-0.00223153 -0.390496 0 
0.00156593 -0.38445 0 
0.00252381 -0.391944 0 
-0.0038065 -0.396614 0 
-0.00571943 -0.403214 0 
0.00137804 -0.398677 0 
-0.000627749 -0.405858 0 
-0.007346 -0.408649 0 
-0.00763799 -0.414719 0 
-0.00253391 -0.411949 0 
-0.00403683 -0.418973 0 
-0.00758024 -0.420364 0 
-0.00647812 -0.426398 0 
-0.00519631 -0.425687 0 
-0.00478316 -0.432157 0 
0.00511746 -0.385127 0 
0.00795625 -0.393148 0 
0.00911908 -0.385766 0 
0.0135013 -0.394408 0 
0.00704007 -0.399847 0 
0.00495883 -0.40679 0 
0.0124707 -0.400286 0 
0.0103783 -0.406234 0 
0.00287823 -0.412959 0 
-0.000190707 -0.42042 0 
0.00808025 -0.412092 0 
0.00348986 -0.419821 0 
-0.00299483 -0.42772 0 
-0.00350706 -0.435117 0 
-0.00108665 -0.426994 0 
-0.00262118 -0.435354 0 
VECTORS velocity double
0.322904 0.161637 0 
1.26434 0.737603 0 
0.0872331 0.286095 0 
0.443866 1.34704 0 
1.30908 0.956625 0 
0.728107 1.32225 0 
0.35528 1.23972 0 
-0.0321863 1.28307 0 
0.251856 1.73153 0 
0.240666 1.85502 0 
-0.376886 1.5718 0 
-0.417689 1.67986 0 
0.435527 2.19358 0 
1.31912 2.07408 0 
-0.0782375 1.85378 0 
1.51295 2.019 0 
-0.114919 0.160618 0 
-0.0896102 1.20076 0 
-0.218005 -0.0492857 0 
-0.308954 0.843285 0 
-0.223869 1.16219 0 
-0.45943 1.25583 0 
-0.459289 0.623186 0 
-0.657891 0.52944 0 
-0.714244 1.51512 0 
-0.810536 1.54244 0 
-0.812294 0.768875 0 
-0.736411 1.05826 0 
-0.618335 1.5849 0 
0.991077 1.33459 0 
-0.58503 1.36213 0 
0.0960254 0.144589 0 
-0.407758 -0.15693 0 
-0.67729 0.650621 0 
-0.699985 -0.151042 0 
-1.23234 0.668368 0 
-0.822793 0.292013 0 
-0.909049 0.0268918 0 
-1.37247 0.302217 0 
-1.26821 0.0235412 0 
-0.957411 0.128237 0 
-0.79274 0.499054 0 
-1.15966 0.0647963 0 
-1.02906 0.255762 0 
-0.560306 0.933466 0 
-0.0517927 -0.138947 0 
-0.850912 0.507553 0 
-0.0411161 -0.0638104 0 
-0.679263 -0.156129 0 
-1.35767 0.653876 0 
-0.501526 -0.33513 0 
-1.46751 0.0517305 0 
-1.46237 0.112748 0 
-1.11816 -0.396115 0 
-1.66799 -0.104828 0 
-1.08538 -0.424689 0 
-0.850398 -0.476775 0 
-0.997686 -0.0422449 0 
-0.706437 -0.62714 0 
-1.0321 -0.178419 0 
-1.13214 0.439353 0 
-0.249839 -0.245922 0 
-1.40791 0.696551 0 
-0.484621 -0.55553 0 
SCALARS mass double 1
LOOKUP_TABLE default
0.625
0.625
0.625
0.625
0.625
0.625
0.625
0.625
0.625
0.625
0.625
0.625
0.625
0.625
0.625
0.625
0.625
0.625
0.625
0.625
0.625
0.625
0.625
0.625
0.625
0.625
0.625
0.625
0.625
0.625
0.625
0.625
0.625
0.625
0.625
0.625
0.625
0.625
0.625
0.625
0.625
0.625
0.625
0.625
0.625
0.625
0.625
0.625
0.625
0.625
0.625
0.625
0.625
0.625
0.625
0.625
0.625
0.625
0.625
0.625
0.625
0.625
0.625
0.625
SCALARS volume double 1
LOOKUP_TABLE default
0.000445719
0.000617501
0.000446431
0.00063535
0.000622493
0.000629778
0.000586099
0.000588199
0.000624887
0.000627845
0.00060069
0.000598816
0.000618461
0.000630008
0.000614436
0.000645619
0.000458607
0.000655833
0.000435094
0.000646229
0.000583363
0.000598469
0.00056648
0.000581613
0.000621176
0.00061664
0.000591227
0.000560385
0.000625368
0.000574328
0.000571494
0.000489975
0.000416859
0.000619781
0.000405118
0.000600562
0.000542968
0.000571262
0.000523322
0.000551317
0.00058641
0.000536028
0.000559758
0.000502557
0.000548577
0.000485316
0.000514803
0.000482837
0.000410581
0.000611224
0.000390868
0.000537168
0.000552837
0.000579317
0.000532547
0.000554506
0.000570987
0.000502122
0.000517446
0.00049127
0.000494333
0.000429988
0.000499343
0.000371641
VECTORS momentum double
0.201815 0.101023 0 
0.790214 0.461002 0 
0.0545207 0.178809 0 
0.277417 0.841902 0 
0.818173 0.597891 0 
0.455067 0.826405 0 
0.22205 0.774823 0 
-0.0201165 0.801919 0 
0.15741 1.08221 0 
0.150416 1.15938 0 
-0.235554 0.982377 0 
-0.261055 1.04991 0 
0.272204 1.37099 0 
0.824451 1.2963 0 
-0.0488985 1.15861 0 
0.945592 1.26187 0 
-0.0718241 0.100386 0 
-0.0560064 0.750472 0 
-0.136253 -0.0308036 0 
-0.193096 0.527053 0 
-0.139918 0.726368 0 
-0.287144 0.784894 0 
-0.287056 0.389491 0 
-0.411182 0.3309 0 
-0.446402 0.946952 0 
-0.506585 0.964025 0 
-0.507684 0.480547 0 
-0.460257 0.661412 0 
-0.386459 0.990562 0 
0.619423 0.834117 0 
-0.365644 0.851333 0 
0.0600159 0.090368 0 
-0.254849 -0.0980811 0 
-0.423306 0.406638 0 
-0.43749 -0.0944015 0 
-0.77021 0.41773 0 
-0.514246 0.182508 0 
-0.568156 0.0168074 0 
-0.857793 0.188885 0 
-0.792628 0.0147132 0 
-0.598382 0.0801479 0 
-0.495462 0.311908 0 
-0.724791 0.0404977 0 
-0.643159 0.159851 0 
-0.350191 0.583417 0 
-0.0323705 -0.0868419 0 
-0.53182 0.317221 0 
-0.0256976 -0.0398815 0 
-0.424539 -0.0975805 0 
-0.848544 0.408673 0 
-0.313454 -0.209456 0 
-0.917192 0.0323315 0 
-0.913979 0.0704673 0 
-0.698852 -0.247572 0 
-1.04249 -0.0655176 0 
-0.678361 -0.265431 0 
-0.531499 -0.297984 0 
-0.623554 -0.0264031 0 
-0.441523 -0.391963 0 
-0.64506 -0.111512 0 
-0.707588 0.274595 0 
-0.156149 -0.153701 0 
-0.879946 0.435345 0 
-0.302888 -0.347206 0 
VECTORS body_force double
0 -9.81 0 
0 -9.81 0 
0 -9.81 0 
0 -9.81 0 
0 -9.81 0 
0 -9.81 0 
0 -9.81 0 
0 -9.81 0 
0 -9.81 0 
0 -9.81 0 
0 -9.81 0 
0 -9.81 0 
0 -9.81 0 
0 -9.81 0 
0 -9.81 0 
0 -9.81 0 
0 -9.81 0 
0 -9.81 0 
0 -9.81 0 
0 -9.81 0 
0 -9.81 0 
0 -9.81 0 
0 -9.81 0 
0 -9.81 0 
0 -9.81 0 
0 -9.81 0 
0 -9.81 0 
0 -9.81 0 
0 -9.81 0 
0 -9.81 0 
0 -9.81 0 
0 -9.81 0 
0 -9.81 0 
0 -9.81 0 
0 -9.81 0 
0 -9.81 0 
0 -9.81 0 
0 -9.81 0 
0 -9.81 0 
0 -9.81 0 
0 -9.81 0 
0 -9.81 0 
0 -9.81 0 
0 -9.81 0 
0 -9.81 0 
0 -9.81 0 
0 -9.81 0 
0 -9.81 0 
0 -9.81 0 
0 -9.81 0 
0 -9.81 0 
0 -9.81 0 
0 -9.81 0 
0 -9.81 0 
0 -9.81 0 
0 -9.81 0 
0 -9.81 0 
0 -9.81 0 
0 -9.81 0 
0 -9.81 0 
0 -9.81 0 
0 -9.81 0 
0 -9.81 0 
0 -9.81 0 
TENSORS cauchy_stress double
-14262.5 -4058.14 0
-4058.14 -50749.7 0
0 0 -19503.7

2193.94 -1552.82 0
-1552.82 -4515.43 0
0 0 -696.446

-14011.7 -5454.4 0
-5454.4 -50693.6 0
0 0 -19411.6

7684.89 -7389.42 0
-7389.42 -4526.33 0
0 0 947.569

-588.497 1744.63 0
1744.63 -184.444 0
0 0 -231.882

-1382.06 -3485.84 0
-3485.84 2846.63 0
0 0 439.37

-359.222 -3856.94 0
-3856.94 -11999.2 0
0 0 -3707.51

-3645.48 -7306.67 0
-7306.67 -8024.92 0
0 0 -3501.12

-1661.3 -2996.51 0
-2996.51 1626.46 0
0 0 -10.4514

-1345.82 -3157.42 0
-3157.42 2219.2 0
0 0 262.015

-4412.06 -6273.74 0
-6273.74 -3217.14 0
0 0 -2288.76

-5863.06 -6974.33 0
-6974.33 -2367.25 0
0 0 -2469.09

-3244.66 -116.523 0
-116.523 1222.09 0
0 0 -606.771

-375.321 -148.413 0
-148.413 1910.18 0
0 0 460.458

-5002.47 -112.633 0
-112.633 1724.12 0
0 0 -983.504

515.621 1841.9 0
1841.9 5726.36 0
0 0 1872.59

-9277.91 -7153.01 0
-7153.01 -50252.4 0
0 0 -17859.1

13672 -8846.31 0
-8846.31 -4411.42 0
0 0 2778.17

-12332.5 -5659.82 0
-5659.82 -57319.2 0
0 0 -20895.5

15177 -8140.24 0
-8140.24 -8753.34 0
0 0 1927.08

5547.98 -5987.89 0
-5987.89 -18806.1 0
0 0 -3977.45

4856.98 -8615.62 0
-8615.62 -13198.6 0
0 0 -2502.47

7366.48 -9201.52 0
-9201.52 -26272.2 0
0 0 -5671.73

6463.4 -11789.2 0
-11789.2 -20299.3 0
0 0 -4150.78

4772.37 -7849.96 0
-7849.96 -5952.68 0
0 0 -354.091

2157.71 -11484.4 0
-11484.4 -4747.31 0
0 0 -776.88

4324.23 -11654.1 0
-11654.1 -15007.3 0
0 0 -3204.91

-2450.46 -14482.9 0
-14482.9 -18535.8 0
0 0 -6295.87

-2391.68 -9555.6 0
-9555.6 2504.79 0
0 0 33.9333

-18074.1 -11499.5 0
-11499.5 1814.13 0
0 0 -4877.98

-5882.61 -16392.1 0
-16392.1 -11328.4 0
0 0 -5163.3

-24606.5 -18008.2 0
-18008.2 -22200.6 0
0 0 -14042.1

-14788.4 -2307.61 0
-2307.61 -63096.9 0
0 0 -23365.6

12973.1 -3667.64 0
-3667.64 -14585.8 0
0 0 -483.813

-16277 -626.033 0
-626.033 -67102.3 0
0 0 -25013.8

11173.1 -1649.44 0
-1649.44 -18843.5 0
0 0 -2301.1

6465.86 -5994.27 0
-5994.27 -33523.9 0
0 0 -8117.41

9029.31 -7219.9 0
-7219.9 -26318.6 0
0 0 -5186.77

4004.49 -6213.05 0
-6213.05 -38149.5 0
0 0 -10243.5

6649.88 -7370.72 0
-7370.72 -30773.3 0
0 0 -7237.02

9477.8 -7140.59 0
-7140.59 -21734.2 0
0 0 -3676.91

793.331 -8440.3 0
-8440.3 -30325.1 0
0 0 -8859.53

6687.94 -8282.87 0
-8282.87 -27889.4 0
0 0 -6360.43

-2930.39 -10230.9 0
-10230.9 -39000.8 0
0 0 -12579.4

-1563.85 -9804.87 0
-9804.87 -23517.8 0
0 0 -7524.5

-9943.19 -8854.59 0
-8854.59 -38701.2 0
0 0 -14593.3

-5197.73 -11393.8 0
-11393.8 -32103.7 0
0 0 -11190.4

-10684.1 -8445.04 0
-8445.04 -38945.1 0
0 0 -14888.8

-12179.8 1820.72 0
1820.72 -68623.6 0
0 0 -24241

16008.6 440.318 0
440.318 -20294.9 0
0 0 -1285.89

-16082.4 3026.87 0
3026.87 -74183.1 0
0 0 -27079.7

1477.04 -1196.94 0
-1196.94 -30600.3 0
0 0 -8736.98

9967.45 -3993.66 0
-3993.66 -33561.4 0
0 0 -7078.2

12372.6 -2530.44 0
-2530.44 -26969.2 0
0 0 -4378.96

-816.511 -1955.52 0
-1955.52 -29968.4 0
0 0 -9235.46

2184.82 3073.38 0
3073.38 -25199.1 0
0 0 -6904.28

11237 -2543.76 0
-2543.76 -28618.8 0
0 0 -5214.53

-748.105 -3032.04 0
-3032.04 -41349.7 0
0 0 -12629.3

-1604.99 859.964 0
859.964 -34711.5 0
0 0 -10894.9

-4646.33 -3894.3 0
-3894.3 -41653.3 0
0 0 -13889.9

-7335.59 -1916.29 0
-1916.29 -37768.8 0
0 0 -13531.3

-18680.8 2132.66 0
2132.66 -53241 0
0 0 -21576.6

-6755.64 -4361.87 0
-4361.87 -36409.3 0
0 0 -12949.5

-27153.7 1311.22 0
1311.22 -72812.2 0
0 0 -29989.8

TENSORS velocity_gradient double
-7.86384 13.1265 0
0.664121 16.6298 0
0 0 0

-8.10256 0.039274 0
2.4692 11.2634 0
0 0 0

-9.92804 5.25715 0
-0.219115 16.6179 0
0 0 0

-14.9297 -2.11643 0
-0.388429 11.2833 0
0 0 0

-8.1896 -5.98252 0
2.70384 9.05537 0
0 0 0

-8.73071 -6.01695 0
2.54545 9.19758 0
0 0 0

-15.8272 -6.24582 0
-0.69268 8.78951 0
0 0 0

-15.8851 -5.33232 0
-1.16528 8.48417 0
0 0 0

-7.55175 -5.87309 0
2.61909 9.30541 0
0 0 0

-6.60016 7.48051 0
-0.343023 6.83741 0
0 0 0

-13.4916 -2.86122 0
-3.19956 7.61634 0
0 0 0

-10.3944 -0.603063 0
-5.64701 7.06485 0
0 0 0

-4.62528 16.3782 0
-8.41461 5.44643 0
0 0 0

-0.508511 12.8753 0
-9.59321 0.189447 0
0 0 0

-5.99853 20.929 0
-7.82024 3.47672 0
0 0 0

-1.14522 21.4885 0
-9.85961 2.78045 0
0 0 0

-7.26078 -2.58046 0
-5.27727 15.4254 0
0 0 0

-12.2795 -4.41127 0
-5.53008 11.0602 0
0 0 0

-6.71688 -8.94494 0
-5.41643 10.4083 0
0 0 0

-10.2859 -7.07904 0
-8.79104 7.90841 0
0 0 0

-13.2854 -6.43893 0
-6.00511 8.00414 0
0 0 0

-13.3073 -6.44877 0
-6.9671 8.05339 0
0 0 0

-10.3502 -5.2082 0
-12.0485 3.73591 0
0 0 0

-9.41007 -5.27232 0
-15.1524 3.9476 0
0 0 0

-11.0186 0.436635 0
-8.68141 5.24974 0
0 0 0

-6.61756 0.705583 0
-12.1185 5.13737 0
0 0 0

-7.48721 4.67688 0
-17.2008 4.49996 0
0 0 0

-4.338 4.80305 0
-17.512 4.4875 0
0 0 0

-4.45485 23.3899 0
-16.4396 1.44583 0
0 0 0

-9.02844 22.6141 0
-21.136 0.906833 0
0 0 0

-2.30374 11.5835 0
-18.0842 1.74942 0
0 0 0

-5.79501 17.5487 0
-19.788 -1.2049 0
0 0 0

-5.70977 -14.9727 0
-1.61563 6.74823 0
0 0 0

-8.84179 -12.0636 0
-2.69648 5.01553 0
0 0 0

-5.55448 -20.569 0
-1.57169 5.16471 0
0 0 0

-8.77986 -18.1635 0
-2.58876 3.97272 0
0 0 0

-8.26617 -3.1727 0
-4.39206 -0.554044 0
0 0 0

-6.27157 -3.37503 0
-6.2565 -0.364918 0
0 0 0

-8.4761 0.127048 0
-4.19584 -3.63845 0
0 0 0

-6.53861 -0.0920882 0
-6.00688 -3.43361 0
0 0 0

-4.77422 5.59745 0
-8.11271 3.01956 0
0 0 0

-4.65914 8.15792 0
-9.17623 3.9418 0
0 0 0

-4.8599 4.18358 0
-7.70781 0.0173561 0
0 0 0

-4.60123 8.10423 0
-8.54245 2.91552 0
0 0 0

-4.54248 8.15039 0
-9.91298 3.94436 0
0 0 0

-3.28372 14.1629 0
-10.0099 -3.17207 0
0 0 0

-4.67047 8.10922 0
-9.19709 2.9627 0
0 0 0

-3.95009 16.9093 0
-9.83543 -3.36423 0
0 0 0

-1.56758 -23.6799 0
-2.75104 2.74061 0
0 0 0

-2.51104 -22.8152 0
-4.44417 2.09799 0
0 0 0

-0.842652 -25.1849 0
-2.04884 -0.033936 0
0 0 0

0.153574 -25.2411 0
-1.89405 -0.313021 0
0 0 0

-2.08195 2.51814 0
-5.5498 -5.50068 0
0 0 0

-0.945195 2.38475 0
-6.2856 -5.41434 0
0 0 0

-0.214247 4.00551 0
-1.12118 -5.77977 0
0 0 0

-0.481724 3.99292 0
-1.10981 -5.9712 0
0 0 0

-0.249605 4.17823 0
-6.5962 -0.830223 0
0 0 0

-1.50602 6.67474 0
-5.11009 3.86833 0
0 0 0

-0.691973 3.32572 0
-2.87832 1.38094 0
0 0 0

-1.58244 3.70807 0
-5.0255 7.15233 0
0 0 0

-3.32628 6.97754 0
-3.09514 3.53314 0
0 0 0

-3.77206 17.4162 0
-2.63977 -3.66311 0
0 0 0

-3.40933 4.1892 0
-3.0032 6.61973 0
0 0 0

-3.78167 20.113 0
-2.62839 -6.88986 0
0 0 0

SCALARS active double 1
LOOKUP_TABLE default
1
1
1
1
1
1
1
1
1
1
1
1
1
1
1
1
1
1
1
1
1
1
1
1
1
1
1
1
1
1
1
1
1
1
1
1
1
1
1
1
1
1
1
1
1
1
1
1
1
1
1
1
1
1
1
1
1
1
1
1
1
1
1
1
SCALARS extent double 1
LOOKUP_TABLE default
0.0125
0.0125
0.0125
0.0125
0.0125
0.0125
0.0125
0.0125
0.0125
0.0125
0.0125
0.0125
0.0125
0.0125
0.0125
0.0125
0.0125
0.0125
0.0125
0.0125
0.0125
0.0125
0.0125
0.0125
0.0125
0.0125
0.0125
0.0125
0.0125
0.0125
0.0125
0.0125
0.0125
0.0125
0.0125
0.0125
0.0125
0.0125
0.0125
0.0125
0.0125
0.0125
0.0125
0.0125
0.0125
0.0125
0.0125
0.0125
0.0125
0.0125
0.0125
0.0125
0.0125
0.0125
0.0125
0.0125
0.0125
0.0125
0.0125
0.0125
0.0125
0.0125
0.0125
0.0125
SCALARS pressure double 1
LOOKUP_TABLE default
28172
1005.98
28039
-1368.71
334.941
-634.645
5355.29
5057.17
15.0965
-378.466
3305.99
3566.47
876.447
-665.106
1420.62
-2704.86
25796.5
-4012.91
30182.4
-2783.57
5745.2
3614.68
8192.49
5995.57
511.465
1122.16
4629.31
9094.03
-49.0148
7045.97
7458.1
20283.1
33750.3
698.842
36131
3323.81
11725.1
7492.01
14796.2
10453.5
5311.1
12797.1
9187.29
18170.2
10868.7
21079.2
16164
21506
35014.8
1857.39
39115.1
12620.1
10224.1
6325.17
13340.1
9972.84
7532.1
18242.4
15737.1
20063.2
19545.2
31166.1
18704.8
43318.5
SCALARS density double 1
LOOKUP_TABLE default
1402.23
1012.14
1399.99
983.71
1004.03
992.413
1066.37
1062.57
1000.18
995.469
1040.47
1043.73
1010.57
992.05
1017.19
968.063
1362.82
952.986
1436.47
967.149
1071.37
1044.33
1103.3
1074.6
1006.16
1013.56
1057.12
1115.31
999.412
1088.23
1093.62
1275.57
1499.31
1008.42
1542.76
1040.69
1151.08
1094.07
1194.29
1133.65
1065.81
1165.98
1116.55
1243.64
1139.31
1287.82
1214.06
1294.43
1522.23
1022.54
1599
1163.51
1130.53
1078.86
1173.61
1127.13
1094.6
1244.72
1207.85
1272.21
1264.33
1453.53
1251.64
1681.73
