# vtk DataFile Version 3.0
Frame: 44, Time: 0.734
ASCII
DATASET UNSTRUCTURED_GRID
POINTS 64 double
0.398907 0.119182 0 
0.374093 0.115623 0 
0.393154 0.144434 0 
0.367486 0.139092 0 
0.34844 0.10841 0 
0.321469 0.103008 0 
0.344174 0.131958 0 
0.318392 0.127278 0 
0.297252 0.0984556 0 
0.271518 0.0909886 0 
0.293659 0.123376 0 
0.268654 0.115712 0 
0.243136 0.0900757 0 
0.219276 0.0856889 0 
0.240615 0.113584 0 
0.216864 0.109397 0 
0.385811 0.168462 0 
0.360839 0.161744 0 
0.383505 0.192106 0 
0.357807 0.185468 0 
0.338387 0.156049 0 
0.314013 0.152671 0 
0.33434 0.181401 0 
0.309788 0.177616 0 
0.288996 0.146398 0 
0.265119 0.138333 0 
0.284407 0.170681 0 
0.259486 0.164368 0 
0.23865 0.137182 0 
0.212145 0.135638 0 
0.234557 0.162009 0 
0.210062 0.159314 0 
0.380081 0.216469 0 
0.355403 0.20914 0 
0.377 0.240762 0 
0.352246 0.234085 0 
0.331351 0.205433 0 
0.305835 0.202355 0 
0.329106 0.230695 0 
0.30344 0.228336 0 
0.280823 0.195435 0 
0.257059 0.190191 0 
0.277791 0.220006 0 
0.254499 0.216999 0 
0.232673 0.186616 0 
0.208075 0.183071 0 
0.229263 0.213548 0 
0.203212 0.208057 0 
0.374653 0.264925 0 
0.348743 0.257984 0 
0.367298 0.287947 0 
0.342766 0.282976 0 
0.324696 0.256754 0 
0.299279 0.252339 0 
0.318652 0.282508 0 
0.293735 0.276912 0 
0.273797 0.244609 0 
0.249844 0.243031 0 
0.268718 0.271554 0 
0.244909 0.268962 0 
0.225818 0.237941 0 
0.200081 0.232146 0 
0.221649 0.261661 0 
0.19676 0.257669 0 
CELLS 64 128
1 0
1 1
1 2
1 3
1 4
1 5
1 6
1 7
1 8
1 9
1 10
1 11
1 12
1 13
1 14
1 15
1 16
1 17
1 18
1 19
1 20
1 21
1 22
1 23
1 24
1 25
1 26
1 27
1 28
1 29
1 30
1 31
1 32
1 33
1 34
1 35
1 36
1 37
1 38
1 39
1 40
1 41
1 42
1 43
1 44
1 45
1 46
1 47
1 48
1 49
1 50
1 51
1 52
1 53
1 54
1 55
1 56
1 57
1 58
1 59
1 60
1 61
1 62
1 63
CELL_TYPES 64
1
1
1
1
1
1
1
1
1
1
1
1
1
1
1
1
1
1
1
1
1
1
1
1
1
1
1
1
1
1
1
1
1
1
1
1
1
1
1
1
1
1
1
1
1
1
1
1
1
1
1
1
1
1
1
1
1
1
1
1
1
1
1
1
POINT_DATA 64
VECTORS displacement double
-0.0135926 -0.293318 0 
-0.0384067 -0.321877 0 
-0.0443462 -0.268066 0 
-0.0700136 -0.298408 0 
-0.0640597 -0.35409 0 
-0.0910313 -0.384492 0 
-0.0933258 -0.330542 0 
-0.119108 -0.360222 0 
-0.115248 -0.414044 0 
-0.140982 -0.446511 0 
-0.143841 -0.389124 0 
-0.168846 -0.421788 0 
-0.169364 -0.472424 0 
-0.193224 -0.501811 0 
-0.196885 -0.448916 0 
-0.220636 -0.478103 0 
-0.0766893 -0.244038 0 
-0.101661 -0.275756 0 
-0.103995 -0.220394 0 
-0.129693 -0.252032 0 
-0.124113 -0.306451 0 
-0.148487 -0.334829 0 
-0.15316 -0.281099 0 
-0.177712 -0.309884 0 
-0.173504 -0.366102 0 
-0.197381 -0.399167 0 
-0.203093 -0.341819 0 
-0.228014 -0.373132 0 
-0.22385 -0.425318 0 
-0.250355 -0.451862 0 
-0.252943 -0.400491 0 
-0.277438 -0.428186 0 
-0.132419 -0.196031 0 
-0.157097 -0.22836 0 
-0.1605 -0.171738 0 
-0.185254 -0.203415 0 
-0.181149 -0.257067 0 
-0.206665 -0.285145 0 
-0.208394 -0.231805 0 
-0.23406 -0.259164 0 
-0.231677 -0.317065 0 
-0.255441 -0.347309 0 
-0.259709 -0.292494 0 
-0.283001 -0.320501 0 
-0.279827 -0.375884 0 
-0.304425 -0.404429 0 
-0.308237 -0.348952 0 
-0.334288 -0.379443 0 
-0.187847 -0.147575 0 
-0.213757 -0.179516 0 
-0.220202 -0.124553 0 
-0.244734 -0.154524 0 
-0.237804 -0.205746 0 
-0.263221 -0.235161 0 
-0.268848 -0.179992 0 
-0.293765 -0.210588 0 
-0.288703 -0.267891 0 
-0.312656 -0.294469 0 
-0.318782 -0.240946 0 
-0.342591 -0.268538 0 
-0.336682 -0.324559 0 
-0.362419 -0.355354 0 
-0.365851 -0.300839 0 
-0.39074 -0.329831 0 
VECTORS velocity double
-0.223712 0.551401 0 
-0.41213 0.917618 0 
-0.459237 0.694578 0 
-0.580587 0.815465 0 
0.31709 0.4994 0 
-0.908923 0.679328 0 
-0.408971 0.22429 0 
-1.06962 0.639932 0 
0.0613023 0.304181 0 
-0.305159 0.308432 0 
0.119983 0.568476 0 
-0.261963 0.315961 0 
-0.608164 0.367822 0 
-0.51296 0.16306 0 
-0.461382 0.290328 0 
-0.561648 0.154366 0 
-0.303137 0.50154 0 
-0.611449 0.572173 0 
-0.65129 0.771456 0 
-0.752552 0.377925 0 
-0.367009 0.669944 0 
-0.698628 0.796623 0 
-0.46931 0.752186 0 
-0.930317 0.806102 0 
-0.465437 0.331168 0 
-0.566919 -0.241987 0 
-0.970541 0.610954 0 
-1.0828 0.500628 0 
-0.628618 -0.00969847 0 
-0.444692 0.148854 0 
-0.682396 0.849612 0 
-1.04519 0.111963 0 
-0.604525 0.650091 0 
-0.728597 0.417785 0 
-0.468123 0.289295 0 
-0.512638 0.633736 0 
-0.474317 0.570492 0 
-0.637051 0.437206 0 
-0.852992 0.340682 0 
-1.21205 0.329384 0 
-0.466653 0.399245 0 
-0.519846 0.446016 0 
-0.977253 0.529756 0 
-1.09071 0.468918 0 
-0.535006 0.0995296 0 
-0.825828 -0.371212 0 
-0.780575 0.640495 0 
-0.56925 0.173633 0 
-0.25277 0.825425 0 
-0.254783 0.427578 0 
-0.341032 0.582761 0 
-0.214185 0.250255 0 
-0.222533 0.035818 0 
-0.22795 0.695382 0 
-0.128587 0.338207 0 
-0.183735 0.65528 0 
-0.360047 0.728752 0 
-0.764975 0.212489 0 
-0.675499 0.30953 0 
-0.696557 0.414603 0 
-0.419318 0.20611 0 
-1.13912 -0.37607 0 
-1.08406 -0.160855 0 
-0.97783 -0.294155 0 
SCALARS mass double 1
LOOKUP_TABLE default
0.625
0.625
0.625
0.625
0.625
0.625
0.625
0.625
0.625
0.625
0.625
0.625
0.625
0.625
0.625
0.625
0.625
0.625
0.625
0.625
0.625
0.625
0.625
0.625
0.625
0.625
0.625
0.625
0.625
0.625
0.625
0.625
0.625
0.625
0.625
0.625
0.625
0.625
0.625
0.625
0.625
0.625
0.625
0.625
0.625
0.625
0.625
0.625
0.625
0.625
0.625
0.625
0.625
0.625
0.625
0.625
0.625
0.625
0.625
0.625
0.625
0.625
0.625
0.625
SCALARS volume double 1
LOOKUP_TABLE default
0.000635686
0.000612729
0.000638567
0.000621789
0.000648064
0.000658747
0.000618096
0.000638122
0.000624846
0.00065816
0.000614798
0.000635056
0.000643483
0.000617694
0.000605788
0.000614115
0.000636041
0.000608848
0.000652351
0.0006645
0.000620469
0.000669901
0.000615576
0.000625779
0.000663056
0.000635982
0.000622957
0.000634705
0.000643124
0.000599041
0.000603624
0.000634074
0.000619726
0.000614447
0.000636407
0.000595386
0.00065679
0.000656036
0.000635335
0.000620321
0.000651737
0.000639543
0.000636269
0.000620257
0.000616554
0.000625517
0.000655919
0.000624703
0.000645291
0.00065991
0.000606373
0.000615687
0.00063456
0.000634419
0.000611952
0.000641012
0.000642353
0.000618846
0.000637507
0.000621199
0.000615202
0.000623105
0.000633584
0.000624439
VECTORS momentum double
-0.13982 0.344626 0 
-0.257581 0.573511 0 
-0.287023 0.434111 0 
-0.362867 0.509666 0 
0.198181 0.312125 0 
-0.568077 0.42458 0 
-0.255607 0.140181 0 
-0.668516 0.399958 0 
0.038314 0.190113 0 
-0.190724 0.19277 0 
0.0749895 0.355297 0 
-0.163727 0.197476 0 
-0.380103 0.229888 0 
-0.3206 0.101912 0 
-0.288364 0.181455 0 
-0.35103 0.0964787 0 
-0.189461 0.313462 0 
-0.382156 0.357608 0 
-0.407056 0.48216 0 
-0.470345 0.236203 0 
-0.229381 0.418715 0 
-0.436642 0.497889 0 
-0.293319 0.470117 0 
-0.581448 0.503814 0 
-0.290898 0.20698 0 
-0.354325 -0.151242 0 
-0.606588 0.381847 0 
-0.676747 0.312893 0 
-0.392886 -0.00606154 0 
-0.277932 0.0930335 0 
-0.426497 0.531008 0 
-0.653241 0.0699766 0 
-0.377828 0.406307 0 
-0.455373 0.261116 0 
-0.292577 0.18081 0 
-0.320399 0.396085 0 
-0.296448 0.356557 0 
-0.398157 0.273254 0 
-0.53312 0.212926 0 
-0.75753 0.205865 0 
-0.291658 0.249528 0 
-0.324904 0.27876 0 
-0.610783 0.331098 0 
-0.681693 0.293074 0 
-0.334379 0.062206 0 
-0.516143 -0.232008 0 
-0.487859 0.400309 0 
-0.355781 0.108521 0 
-0.157981 0.515891 0 
-0.159239 0.267236 0 
-0.213145 0.364226 0 
-0.133866 0.15641 0 
-0.139083 0.0223862 0 
-0.142469 0.434614 0 
-0.0803668 0.211379 0 
-0.114834 0.40955 0 
-0.225029 0.45547 0 
-0.47811 0.132805 0 
-0.422187 0.193456 0 
-0.435348 0.259127 0 
-0.262074 0.128819 0 
-0.711953 -0.235044 0 
-0.677536 -0.100535 0 
-0.611144 -0.183847 0 
VECTORS body_force double
0 -9.81 0 
0 -9.81 0 
0 -9.81 0 
0 -9.81 0 
0 -9.81 0 
0 -9.81 0 
0 -9.81 0 
0 -9.81 0 
0 -9.81 0 
0 -9.81 0 
0 -9.81 0 
0 -9.81 0 
0 -9.81 0 
0 -9.81 0 
0 -9.81 0 
0 -9.81 0 
0 -9.81 0 
0 -9.81 0 
0 -9.81 0 
0 -9.81 0 
0 -9.81 0 
0 -9.81 0 
0 -9.81 0 
0 -9.81 0 
0 -9.81 0 
0 -9.81 0 
0 -9.81 0 
0 -9.81 0 
0 -9.81 0 
0 -9.81 0 
0 -9.81 0 
0 -9.81 0 
0 -9.81 0 
0 -9.81 0 
0 -9.81 0 
0 -9.81 0 
0 -9.81 0 
0 -9.81 0 
0 -9.81 0 
0 -9.81 0 
0 -9.81 0 
0 -9.81 0 
0 -9.81 0 
0 -9.81 0 
0 -9.81 0 
0 -9.81 0 
0 -9.81 0 
0 -9.81 0 
0 -9.81 0 
0 -9.81 0 
0 -9.81 0 
0 -9.81 0 
0 -9.81 0 
0 -9.81 0 
0 -9.81 0 
0 -9.81 0 
0 -9.81 0 
0 -9.81 0 
0 -9.81 0 
0 -9.81 0 
0 -9.81 0 
0 -9.81 0 
0 -9.81 0 
0 -9.81 0 
TENSORS cauchy_stress double
693.879 377.756 0
377.756 2566.25 0
0 0 978.038

-1581.07 -852.1 0
-852.1 -2232.25 0
0 0 -1144

-35.7871 -1798.43 0
-1798.43 4165.47 0
0 0 1238.91

-681.891 3671.85 0
3671.85 -308.619 0
0 0 -297.153

5466.82 3300.31 0
3300.31 1502.04 0
0 0 2090.66

9173.71 469.66 0
469.66 939.388 0
0 0 3033.93

-3754.12 8044.92 0
8044.92 1618.12 0
0 0 -640.8

2747.06 -5191.6 0
-5191.6 1248.56 0
0 0 1198.69

-1288.33 1964.26 0
1964.26 1241 0
0 0 -14.1995

9034.45 528.424 0
528.424 907.144 0
0 0 2982.48

-1681.87 4432.44 0
4432.44 -1482.98 0
0 0 -949.457

4575.57 1390.2 0
1390.2 -1506.15 0
0 0 920.825

6772.88 -71.9142 0
-71.9142 -1168.37 0
0 0 1681.35

-1803.44 1170.27 0
1170.27 -457.825 0
0 0 -678.379

402.45 364.925 0
364.925 -6406.69 0
0 0 -1801.27

-1684.65 2623.61 0
2623.61 -1693.94 0
0 0 -1013.58

-1369.92 -907.881 0
-907.881 4737.64 0
0 0 1010.32

1209.98 -451.729 0
-451.729 -6245.26 0
0 0 -1510.58

5115.91 -247.561 0
-247.561 3120.71 0
0 0 2470.99

9666.97 -324.163 0
-324.163 2118.15 0
0 0 3535.54

-4250.41 1970.06 0
1970.06 2851.31 0
0 0 -419.731

4155.27 -7141.9 0
-7141.9 9186.73 0
0 0 4002.6

-3806.31 949.689 0
949.689 884.419 0
0 0 -876.566

1451.74 -15.713 0
-15.713 -1212.07 0
0 0 71.9006

8113.64 -4004.3 0
-4004.3 3253.21 0
0 0 3410.06

-521.281 -1860.96 0
-1860.96 3870.99 0
0 0 1004.91

-1022.73 5140.09 0
5140.09 392.966 0
0 0 -188.929

2552.6 -1228.96 0
-1228.96 410.571 0
0 0 888.952

5851.03 119.5 0
119.5 -353.836 0
0 0 1649.16

-1702.17 -1466.72 0
-1466.72 -6455.91 0
0 0 -2447.42

-3739.13 349.52 0
349.52 -2953.2 0
0 0 -2007.7

2700.24 -1368.27 0
-1368.27 71.7203 0
0 0 831.588

-2799.29 197.411 0
197.411 1169.55 0
0 0 -488.922

-1791.49 2055.52 0
2055.52 -1483.2 0
0 0 -982.405

1439.78 -1115.85 0
-1115.85 2038.3 0
0 0 1043.42

-5761.49 763.877 0
763.877 -3573.41 0
0 0 -2800.47

5268.69 -627.055 0
-627.055 4272.24 0
0 0 2862.28

4791.05 -3492.68 0
-3492.68 4528.87 0
0 0 2795.98

2156.77 -1535.67 0
-1535.67 997.363 0
0 0 946.241

288.658 5675.05 0
5675.05 -1733.81 0
0 0 -433.545

7840.67 -93.987 0
-93.987 215.029 0
0 0 2416.71

1084.3 -7733.63 0
-7733.63 3339.2 0
0 0 1327.05

1361.52 8559.75 0
8559.75 2075.06 0
0 0 1030.97

-4441.7 1899.35 0
1899.35 2976.76 0
0 0 -439.481

-2113.67 -851.039 0
-851.039 -502.964 0
0 0 -784.99

560.096 3617.99 0
3617.99 -401.132 0
0 0 47.6891

6668.29 6394.37 0
6394.37 2617.4 0
0 0 2785.7

96.6307 1874.8 0
1874.8 -188.159 0
0 0 -27.4583

4079.58 249.192 0
249.192 2064.65 0
0 0 1843.27

6512.16 1844.58 0
1844.58 3939.99 0
0 0 3135.65

-2178.57 1107.62 0
1107.62 -3639.91 0
0 0 -1745.54

-203.902 -841.871 0
-841.871 -2683.31 0
0 0 -866.164

2412.85 -2203.71 0
-2203.71 506.563 0
0 0 875.824

1551.62 -1830.1 0
-1830.1 1324.78 0
0 0 862.923

-3190.01 -1003.88 0
-1003.88 -867.127 0
0 0 -1217.14

3748.55 1996.02 0
1996.02 1116.3 0
0 0 1459.46

2893.02 -1576.98 0
-1576.98 2373.66 0
0 0 1580.01

-2619.94 -6438.21 0
-6438.21 716.961 0
0 0 -570.893

-258.934 -898.186 0
-898.186 4069.25 0
0 0 1143.1

-2559.28 -255.232 0
-255.232 1386.32 0
0 0 -351.888

1785.97 -2123.44 0
-2123.44 -4824.56 0
0 0 -911.577

-55.5646 -1623.98 0
-1623.98 -528.371 0
0 0 -175.181

206.575 993.39 0
993.39 2416.6 0
0 0 786.951

-962.639 982.547 0
982.547 789.851 0
0 0 -51.8363

TENSORS velocity_gradient double
0.635371 -2.79246 0
-1.21519 -1.89758 0
0 0 0

0.569807 -3.67381 0
2.10932 -0.641459 0
0 0 0

1.58749 -2.99876 0
0.682052 -1.58853 0
0 0 0

1.40067 -3.90412 0
0.944929 -0.318695 0
0 0 0

0.546796 -4.59562 0
2.61304 0.543701 0
0 0 0

-0.000451157 -2.53933 0
2.85836 0.625923 0
0 0 0

1.5885 -4.75019 0
2.04016 0.701053 0
0 0 0

1.4409 -5.75557 0
2.21717 1.38695 0
0 0 0

1.59608 -2.87803 0
3.80622 0.308601 0
0 0 0

2.96392 -0.613497 0
4.06752 -0.711648 0
0 0 0

1.64717 -6.25355 0
4.48266 1.78181 0
0 0 0

1.94655 -5.31317 0
4.43383 1.39953 0
0 0 0

1.03775 0.138949 0
1.68148 -1.07383 0
0 0 0

0.864383 -0.810581 0
1.6365 -1.32023 0
0 0 0

1.3807 -4.54131 0
2.00287 0.957154 0
0 0 0

1.39978 -4.43181 0
1.93582 0.572492 0
0 0 0

1.06787 -3.24409 0
0.482445 -1.18688 0
0 0 0

1.34649 -2.20835 0
0.441335 -1.33971 0
0 0 0

0.0854882 -3.15161 0
0.627398 -1.20053 0
0 0 0

0.36064 -2.08476 0
0.586799 -1.35794 0
0 0 0

2.31119 -1.90085 0
1.52753 -1.1059 0
0 0 0

2.25253 -3.02654 0
1.59704 -0.0832757 0
0 0 0

2.22793 -1.67716 0
1.13225 -1.17756 0
0 0 0

2.24279 -1.58033 0
1.19016 -0.800187 0
0 0 0

0.80427 -5.27593 0
4.83429 1.40817 0
0 0 0

1.08289 -5.18283 0
4.78674 1.34627 0
0 0 0

0.311514 -1.30867 0
3.86803 0.17697 0
0 0 0

0.407401 -0.92377 0
4.20776 1.54068 0
0 0 0

1.27192 -4.53275 0
2.38499 0.92709 0
0 0 0

1.27874 -4.4106 0
2.36101 0.497997 0
0 0 0

1.07245 -0.592056 0
3.50374 0.95871 0
0 0 0

1.10339 -0.302141 0
3.30213 -0.930527 0
0 0 0

-0.199789 4.03446 0
1.04225 -1.40547 0
0 0 0

-0.180103 3.93288 0
0.869571 -1.96071 0
0 0 0

-0.0984031 4.02121 0
1.59686 -1.47796 0
0 0 0

0.473441 3.93331 0
1.01378 -1.95304 0
0 0 0

2.13017 3.38079 0
0.694054 -1.55696 0
0 0 0

2.14301 2.10414 0
0.759779 -0.848494 0
0 0 0

2.01845 3.99696 0
0.00610565 -1.54371 0
0 0 0

2.0827 4.00685 0
0.451046 -0.868969 0
0 0 0

-0.00692198 -0.887747 0
2.54611 0.265092 0
0 0 0

0.00904853 -0.886643 0
2.79638 1.67222 0
0 0 0

1.59424 2.20972 0
2.22351 -0.712313 0
0 0 0

1.35058 0.154867 0
2.65972 -0.726236 0
0 0 0

0.781069 -0.569915 0
5.40253 0.814426 0
0 0 0

0.821541 -0.278703 0
5.1388 -1.08326 0
0 0 0

1.37771 -1.46523 0
7.24501 -1.87488 0
0 0 0

1.5251 -2.91084 0
6.37923 -3.32449 0
0 0 0

-0.68261 2.83979 0
2.32837 1.08291 0
0 0 0

0.810223 3.90947 0
0.709063 0.197058 0
0 0 0

-1.6799 3.16179 0
3.14145 0.820392 0
0 0 0

0.997605 4.12315 0
0.348379 0.00977343 0
0 0 0

1.75002 4.63753 0
-0.366483 -0.478935 0
0 0 0

3.14939 4.62386 0
1.01712 -1.04234 0
0 0 0

1.0108 4.81417 0
0.33584 -0.646761 0
0 0 0

5.95522 4.94047 0
2.82111 -1.3198 0
0 0 0

3.78367 1.91303 0
2.2113 -0.749594 0
0 0 0

3.38016 -0.184308 0
5.28863 -0.861989 0
0 0 0

5.74939 3.26678 0
2.76546 -1.98178 0
0 0 0

5.73785 1.36386 0
8.70687 -2.5703 0
0 0 0

2.77204 -1.65897 0
8.69366 -2.07616 0
0 0 0

3.1677 -3.03414 0
6.24298 -3.38235 0
0 0 0

4.8932 -1.42724 0
9.63476 -3.01162 0
0 0 0

4.40687 -3.85979 0
4.67891 -3.0745 0
0 0 0

SCALARS active double 1
LOOKUP_TABLE default
1
1
1
1
1
1
1
1
1
1
1
1
1
1
1
1
1
1
1
1
1
1
1
1
1
1
1
1
1
1
1
1
1
1
1
1
1
1
1
1
1
1
1
1
1
1
1
1
1
1
1
1
1
1
1
1
1
1
1
1
1
1
1
1
SCALARS extent double 1
LOOKUP_TABLE default
0.0125
0.0125
0.0125
0.0125
0.0125
0.0125
0.0125
0.0125
0.0125
0.0125
0.0125
0.0125
0.0125
0.0125
0.0125
0.0125
0.0125
0.0125
0.0125
0.0125
0.0125
0.0125
0.0125
0.0125
0.0125
0.0125
0.0125
0.0125
0.0125
0.0125
0.0125
0.0125
0.0125
0.0125
0.0125
0.0125
0.0125
0.0125
0.0125
0.0125
0.0125
0.0125
0.0125
0.0125
0.0125
0.0125
0.0125
0.0125
0.0125
0.0125
0.0125
0.0125
0.0125
0.0125
0.0125
0.0125
0.0125
0.0125
0.0125
0.0125
0.0125
0.0125
0.0125
0.0125
SCALARS pressure double 1
LOOKUP_TABLE default
-1412.72
1652.44
-1789.53
429.221
-3019.84
-4382.34
925.6
-1731.43
20.5104
-4308.02
1371.44
-1330.08
-2428.62
979.88
2601.84
1464.06
-1459.34
2181.96
-3569.2
-5106.89
606.278
-5781.53
1266.15
-103.856
-4925.64
-1451.54
272.898
-1284.04
-2382.12
3535.17
2900.01
-1201.18
706.221
1419.03
-1507.17
4045.12
-4134.41
-4038.63
-1366.79
626.232
-3490.8
-1916.85
-1489.19
634.806
1133.87
-68.8843
-4023.8
39.662
-2662.5
-4529.27
2521.34
1251.13
-1265.08
-1246.44
1758.09
-2108.1
-2282.23
824.623
-1651.14
508.283
1316.72
253.039
-1136.71
74.8747
SCALARS density double 1
LOOKUP_TABLE default
983.19
1020.03
978.755
1005.16
964.411
948.771
1011.17
979.437
1000.25
949.617
1016.59
984.166
971.277
1011.83
1031.71
1017.72
982.64
1026.53
958.074
940.557
1007.3
932.974
1015.31
998.754
942.605
982.732
1003.28
984.71
971.819
1043.33
1035.41
985.689
1008.51
1017.17
982.077
1049.74
951.598
952.692
983.732
1007.54
958.976
977.26
982.288
1007.65
1013.7
999.174
952.862
1000.48
968.555
947.099
1030.72
1015.13
984.934
985.154
1021.32
975.02
972.985
1009.94
980.381
1006.12
1015.93
1003.04
986.452
1000.9
