# vtk DataFile Version 3.0
Frame: 7, Time: 0.117
ASCII
DATASET UNSTRUCTURED_GRID
POINTS 64 double
0.4125 0.343624 0 
0.4125 0.368624 0 
0.4375 0.343624 0 
0.4375 0.368624 0 
0.4125 0.393624 0 
0.4125 0.418624 0 
0.4375 0.393624 0 
0.4375 0.418624 0 
0.4125 0.443624 0 
0.4125 0.468624 0 
0.4375 0.443624 0 
0.4375 0.468624 0 
0.4125 0.493624 0 
0.4125 0.518624 0 
0.4375 0.493624 0 
0.4375 0.518624 0 
0.4625 0.343624 0 
0.4625 0.368624 0 
0.4875 0.343624 0 
0.4875 0.368624 0 
0.4625 0.393624 0 
0.4625 0.418624 0 
0.4875 0.393624 0 
0.4875 0.418624 0 
0.4625 0.443624 0 
0.4625 0.468624 0 
0.4875 0.443624 0 
0.4875 0.468624 0 
0.4625 0.493624 0 
0.4625 0.518624 0 
0.4875 0.493624 0 
0.4875 0.518624 0 
0.5125 0.343624 0 
0.5125 0.368624 0 
0.5375 0.343624 0 
0.5375 0.368624 0 
0.5125 0.393624 0 
0.5125 0.418624 0 
0.5375 0.393624 0 
0.5375 0.418624 0 
0.5125 0.443624 0 
0.5125 0.468624 0 
0.5375 0.443624 0 
0.5375 0.468624 0 
0.5125 0.493624 0 
0.5125 0.518624 0 
0.5375 0.493624 0 
0.5375 0.518624 0 
0.5625 0.343624 0 
0.5625 0.368624 0 
0.5875 0.343624 0 
0.5875 0.368624 0 
0.5625 0.393624 0 
0.5625 0.418624 0 
0.5875 0.393624 0 
0.5875 0.418624 0 
0.5625 0.443624 0 
0.5625 0.468624 0 
0.5875 0.443624 0 
0.5875 0.468624 0 
0.5625 0.493624 0 
0.5625 0.518624 0 
0.5875 0.493624 0 
0.5875 0.518624 0 
CELLS 64 128
1 0
1 1
1 2
1 3
1 4
1 5
1 6
1 7
1 8
1 9
1 10
1 11
1 12
1 13
1 14
1 15
1 16
1 17
1 18
1 19
1 20
1 21
1 22
1 23
1 24
1 25
1 26
1 27
1 28
1 29
1 30
1 31
1 32
1 33
1 34
1 35
1 36
1 37
1 38
1 39
1 40
1 41
1 42
1 43
1 44
1 45
1 46
1 47
1 48
1 49
1 50
1 51
1 52
1 53
1 54
1 55
1 56
1 57
1 58
1 59
1 60
1 61
1 62
1 63
CELL_TYPES 64
1
1
1
1
1
1
1
1
1
1
1
1
1
1
1
1
1
1
1
1
1
1
1
1
1
1
1
1
1
1
1
1
1
1
1
1
1
1
1
1
1
1
1
1
1
1
1
1
1
1
1
1
1
1
1
1
1
1
1
1
1
1
1
1
POINT_DATA 64
VECTORS displacement double
-4.72242e-17 -0.068876 0 
-3.65992e-17 -0.068876 0 
-4.10341e-17 -0.068876 0 
-3.6019e-17 -0.068876 0 
-3.73341e-17 -0.068876 0 
-4.20704e-17 -0.068876 0 
-3.52795e-17 -0.068876 0 
-3.73404e-17 -0.068876 0 
-3.83549e-17 -0.068876 0 
-3.17141e-17 -0.068876 0 
-3.57116e-17 -0.068876 0 
-3.16502e-17 -0.068876 0 
-2.92937e-17 -0.068876 0 
-3.31148e-17 -0.068876 0 
-3.06991e-17 -0.068876 0 
-3.30949e-17 -0.068876 0 
-3.57571e-17 -0.068876 0 
-3.41855e-17 -0.068876 0 
-3.1393e-17 -0.068876 0 
-3.10987e-17 -0.068876 0 
-3.26596e-17 -0.068876 0 
-3.26001e-17 -0.068876 0 
-2.94744e-17 -0.068876 0 
-2.78494e-17 -0.068876 0 
-3.19526e-17 -0.068876 0 
-2.96382e-17 -0.068876 0 
-2.70779e-17 -0.068876 0 
-2.56782e-17 -0.068876 0 
-2.96462e-17 -0.068876 0 
-3.00855e-17 -0.068876 0 
-2.61348e-17 -0.068876 0 
-2.40866e-17 -0.068876 0 
-2.66844e-17 -0.068876 0 
-2.7256e-17 -0.068876 0 
-2.16314e-17 -0.068876 0 
-2.26573e-17 -0.068876 0 
-2.5853e-17 -0.068876 0 
-2.37199e-17 -0.068876 0 
-2.17956e-17 -0.068876 0 
-2.02115e-17 -0.068876 0 
-2.25732e-17 -0.068876 0 
-2.17203e-17 -0.068876 0 
-1.84386e-17 -0.068876 0 
-1.77648e-17 -0.068876 0 
-2.23753e-17 -0.068876 0 
-1.88623e-17 -0.068876 0 
-1.83676e-17 -0.068876 0 
-1.44127e-17 -0.068876 0 
-1.6198e-17 -0.068876 0 
-1.99791e-17 -0.068876 0 
-1.03843e-17 -0.068876 0 
-1.92216e-17 -0.068876 0 
-1.88561e-17 -0.068876 0 
-1.66453e-17 -0.068876 0 
-1.70347e-17 -0.068876 0 
-1.30211e-17 -0.068876 0 
-1.52349e-17 -0.068876 0 
-1.6077e-17 -0.068876 0 
-1.29619e-17 -0.068876 0 
-1.66571e-17 -0.068876 0 
-1.71051e-17 -0.068876 0 
-1.24685e-17 -0.068876 0 
-1.85878e-17 -0.068876 0 
-1.30297e-17 -0.068876 0 
VECTORS velocity double
-4.26325e-15 -1.15758 0 
2.57165e-16 -1.15758 0 
-2.55319e-15 -1.15758 0 
-8.46982e-16 -1.15758 0 
1.33541e-16 -1.15758 0 
-5.11026e-16 -1.15758 0 
-3.98257e-16 -1.15758 0 
-6.40355e-16 -1.15758 0 
7.39378e-16 -1.15758 0 
1.75299e-15 -1.15758 0 
-1.74845e-16 -1.15758 0 
4.65158e-16 -1.15758 0 
1.98425e-15 -1.15758 0 
-7.44781e-16 -1.15758 0 
4.56024e-16 -1.15758 0 
-6.00368e-16 -1.15758 0 
-1.31516e-15 -1.15758 0 
-1.19014e-15 -1.15758 0 
-5.49145e-16 -1.15758 0 
-7.72302e-16 -1.15758 0 
-6.52387e-16 -1.15758 0 
-6.72572e-16 -1.15758 0 
-6.2885e-16 -1.15758 0 
-6.07679e-16 -1.15758 0 
-5.72139e-16 -1.15758 0 
-2.68083e-16 -1.15758 0 
-4.52506e-16 -1.15758 0 
-4.46731e-16 -1.15758 0 
-5.14956e-16 -1.15758 0 
-4.08093e-16 -1.15758 0 
-9.28689e-16 -1.15758 0 
-1.67957e-16 -1.15758 0 
1.04849e-16 -1.15758 0 
-1.38491e-16 -1.15758 0 
6.46826e-16 -1.15758 0 
7.11295e-16 -1.15758 0 
-3.36862e-16 -1.15758 0 
-4.60457e-16 -1.15758 0 
2.23576e-16 -1.15758 0 
-2.30908e-16 -1.15758 0 
-3.83792e-16 -1.15758 0 
-6.64229e-16 -1.15758 0 
-3.65998e-16 -1.15758 0 
-9.20577e-16 -1.15758 0 
-1.13568e-15 -1.15758 0 
-1.83351e-16 -1.15758 0 
-1.13593e-15 -1.15758 0 
-4.54276e-16 -1.15758 0 
1.48247e-15 -1.15758 0 
5.38635e-16 -1.15758 0 
2.61179e-15 -1.15758 0 
-6.5647e-16 -1.15758 0 
2.7565e-16 -1.15758 0 
-8.50069e-17 -1.15758 0 
-1.8064e-16 -1.15758 0 
-2.27535e-17 -1.15758 0 
-8.27028e-16 -1.15758 0 
-1.77701e-15 -1.15758 0 
-1.76688e-15 -1.15758 0 
-3.23353e-15 -1.15758 0 
-1.72439e-15 -1.15758 0 
-5.79037e-16 -1.15758 0 
-2.90106e-15 -1.15758 0 
-5.57633e-16 -1.15758 0 
SCALARS mass double 1
LOOKUP_TABLE default
0.625
0.625
0.625
0.625
0.625
0.625
0.625
0.625
0.625
0.625
0.625
0.625
0.625
0.625
0.625
0.625
0.625
0.625
0.625
0.625
0.625
0.625
0.625
0.625
0.625
0.625
0.625
0.625
0.625
0.625
0.625
0.625
0.625
0.625
0.625
0.625
0.625
0.625
0.625
0.625
0.625
0.625
0.625
0.625
0.625
0.625
0.625
0.625
0.625
0.625
0.625
0.625
0.625
0.625
0.625
0.625
0.625
0.625
0.625
0.625
0.625
0.625
0.625
0.625
SCALARS volume double 1
LOOKUP_TABLE default
0.000625
0.000625
0.000625
0.000625
0.000625
0.000625
0.000625
0.000625
0.000625
0.000625
0.000625
0.000625
0.000625
0.000625
0.000625
0.000625
0.000625
0.000625
0.000625
0.000625
0.000625
0.000625
0.000625
0.000625
0.000625
0.000625
0.000625
0.000625
0.000625
0.000625
0.000625
0.000625
0.000625
0.000625
0.000625
0.000625
0.000625
0.000625
0.000625
0.000625
0.000625
0.000625
0.000625
0.000625
0.000625
0.000625
0.000625
0.000625
0.000625
0.000625
0.000625
0.000625
0.000625
0.000625
0.000625
0.000625
0.000625
0.000625
0.000625
0.000625
0.000625
0.000625
0.000625
0.000625
VECTORS momentum double
-2.66453e-15 -0.723487 0 
1.60728e-16 -0.723488 0 
-1.59574e-15 -0.723488 0 
-5.29364e-16 -0.723488 0 
8.34634e-17 -0.723488 0 
-3.19391e-16 -0.723487 0 
-2.4891e-16 -0.723488 0 
-4.00222e-16 -0.723487 0 
4.62112e-16 -0.723487 0 
1.09562e-15 -0.723487 0 
-1.09278e-16 -0.723487 0 
2.90724e-16 -0.723487 0 
1.24016e-15 -0.723488 0 
-4.65488e-16 -0.723488 0 
2.85015e-16 -0.723488 0 
-3.7523e-16 -0.723488 0 
-8.21972e-16 -0.723488 0 
-7.43836e-16 -0.723488 0 
-3.43215e-16 -0.723487 0 
-4.82688e-16 -0.723488 0 
-4.07742e-16 -0.723488 0 
-4.20358e-16 -0.723487 0 
-3.93031e-16 -0.723488 0 
-3.79799e-16 -0.723488 0 
-3.57587e-16 -0.723487 0 
-1.67552e-16 -0.723487 0 
-2.82816e-16 -0.723487 0 
-2.79207e-16 -0.723487 0 
-3.21848e-16 -0.723488 0 
-2.55058e-16 -0.723488 0 
-5.80431e-16 -0.723488 0 
-1.04973e-16 -0.723488 0 
6.55308e-17 -0.723487 0 
-8.65567e-17 -0.723488 0 
4.04267e-16 -0.723488 0 
4.44559e-16 -0.723488 0 
-2.10539e-16 -0.723488 0 
-2.87786e-16 -0.723488 0 
1.39735e-16 -0.723488 0 
-1.44318e-16 -0.723488 0 
-2.3987e-16 -0.723487 0 
-4.15143e-16 -0.723487 0 
-2.28748e-16 -0.723487 0 
-5.7536e-16 -0.723487 0 
-7.098e-16 -0.723488 0 
-1.14594e-16 -0.723488 0 
-7.09957e-16 -0.723488 0 
-2.83922e-16 -0.723488 0 
9.26546e-16 -0.723488 0 
3.36647e-16 -0.723488 0 
1.63237e-15 -0.723488 0 
-4.10294e-16 -0.723488 0 
1.72281e-16 -0.723488 0 
-5.31293e-17 -0.723488 0 
-1.129e-16 -0.723488 0 
-1.42209e-17 -0.723488 0 
-5.16893e-16 -0.723487 0 
-1.11063e-15 -0.723487 0 
-1.1043e-15 -0.723487 0 
-2.02095e-15 -0.723487 0 
-1.07774e-15 -0.723488 0 
-3.61898e-16 -0.723488 0 
-1.81316e-15 -0.723488 0 
-3.48521e-16 -0.723488 0 
VECTORS body_force double
0 -9.81 0 
0 -9.81 0 
0 -9.81 0 
0 -9.81 0 
0 -9.81 0 
0 -9.81 0 
0 -9.81 0 
0 -9.81 0 
0 -9.81 0 
0 -9.81 0 
0 -9.81 0 
0 -9.81 0 
0 -9.81 0 
0 -9.81 0 
0 -9.81 0 
0 -9.81 0 
0 -9.81 0 
0 -9.81 0 
0 -9.81 0 
0 -9.81 0 
0 -9.81 0 
0 -9.81 0 
0 -9.81 0 
0 -9.81 0 
0 -9.81 0 
0 -9.81 0 
0 -9.81 0 
0 -9.81 0 
0 -9.81 0 
0 -9.81 0 
0 -9.81 0 
0 -9.81 0 
0 -9.81 0 
0 -9.81 0 
0 -9.81 0 
0 -9.81 0 
0 -9.81 0 
0 -9.81 0 
0 -9.81 0 
0 -9.81 0 
0 -9.81 0 
0 -9.81 0 
0 -9.81 0 
0 -9.81 0 
0 -9.81 0 
0 -9.81 0 
0 -9.81 0 
0 -9.81 0 
0 -9.81 0 
0 -9.81 0 
0 -9.81 0 
0 -9.81 0 
0 -9.81 0 
0 -9.81 0 
0 -9.81 0 
0 -9.81 0 
0 -9.81 0 
0 -9.81 0 
0 -9.81 0 
0 -9.81 0 
0 -9.81 0 
0 -9.81 0 
0 -9.81 0 
0 -9.81 0 
TENSORS cauchy_stress double
1.98618e-11 9.87951e-12 0
9.87951e-12 -1.71434e-11 0
0 0 8.15516e-13

-1.16255e-11 1.25326e-11 0
1.25326e-11 -3.30765e-11 0
0 0 -1.34106e-11

2.68922e-11 -9.11791e-13 0
-9.11791e-13 -7.39063e-13 0
0 0 7.84595e-12

-7.31001e-12 3.47668e-12 0
3.47668e-12 -2.30071e-11 0
0 0 -9.09512e-12

1.98416e-11 -1.37345e-11 0
-1.37345e-11 2.52247e-11 0
0 0 1.35199e-11

2.54771e-11 5.41248e-13 0
5.41248e-13 1.0934e-11 0
0 0 1.09233e-11

2.52095e-11 -5.64209e-12 0
-5.64209e-12 3.77498e-11 0
0 0 1.88878e-11

1.9333e-11 4.12367e-12 0
4.12367e-12 -3.40227e-12 0
0 0 4.77922e-12

1.95138e-11 1.90881e-11 0
1.90881e-11 1.84214e-11 0
0 0 1.13806e-11

-9.53259e-12 9.87042e-12 0
9.87042e-12 -2.28982e-11 0
0 0 -9.72923e-12

1.29545e-11 1.28721e-11 0
1.28721e-11 3.11646e-12 0
0 0 4.8213e-12

-8.91449e-12 7.10713e-12 0
7.10713e-12 -2.1456e-11 0
0 0 -9.11114e-12

2.67402e-11 -8.51009e-14 0
-8.51009e-14 7.68085e-11 0
0 0 3.10646e-11

-1.56062e-11 -4.58061e-12 0
-4.58061e-12 -3.66186e-11 0
0 0 -1.56675e-11

2.78871e-11 1.41082e-12 0
1.41082e-12 7.94846e-11 0
0 0 3.22115e-11

-2.10362e-11 -2.07607e-12 0
-2.07607e-12 -4.92885e-11 0
0 0 -2.10974e-11

1.84897e-11 3.89221e-12 0
3.89221e-12 -1.61722e-12 0
0 0 5.06173e-12

1.35708e-11 3.67278e-12 0
3.67278e-12 5.69991e-15 0
0 0 4.07296e-12

1.97959e-11 2.75612e-12 0
2.75612e-12 1.43069e-12 0
0 0 6.36798e-12

1.42802e-11 5.26367e-15 0
5.26367e-15 1.66089e-12 0
0 0 4.78233e-12

3.88968e-11 1.00353e-12 0
1.00353e-12 5.80899e-11 0
0 0 2.9096e-11

1.67687e-11 -3.37576e-12 0
-3.37576e-12 -9.59793e-12 0
0 0 2.15122e-12

3.47967e-11 6.06437e-12 0
6.06437e-12 4.85231e-11 0
0 0 2.49959e-11

2.35885e-11 7.58556e-12 0
7.58556e-12 6.31509e-12 0
0 0 8.97109e-12

2.61565e-11 4.92744e-12 0
4.92744e-12 1.10345e-11 0
0 0 1.11573e-11

8.11451e-12 6.58445e-12 0
6.58445e-12 -2.16823e-11 0
0 0 -4.07034e-12

2.5524e-11 3.59938e-13 0
3.59938e-13 9.55868e-12 0
0 0 1.05248e-11

1.76277e-11 4.25541e-12 0
4.25541e-12 5.15198e-13 0
0 0 5.44288e-12

4.65949e-11 -5.91693e-13 0
-5.91693e-13 7.27079e-11 0
0 0 3.57908e-11

1.09118e-11 -4.64099e-12 0
-4.64099e-12 -3.60662e-11 0
0 0 -7.54632e-12

4.44788e-11 1.79823e-12 0
1.79823e-12 6.77703e-11 0
0 0 3.36747e-11

2.15282e-12 -1.20836e-12 0
-1.20836e-12 -5.6504e-11 0
0 0 -1.63053e-11

1.42423e-11 -4.47339e-12 0
-4.47339e-12 -1.8594e-11 0
0 0 -1.30552e-12

1.77406e-11 -6.42275e-12 0
-6.42275e-12 -5.7714e-12 0
0 0 3.59077e-12

1.92751e-11 -1.15926e-12 0
-1.15926e-12 -6.85076e-12 0
0 0 3.72731e-12

1.48919e-11 -4.17382e-12 0
-4.17382e-12 -1.24183e-11 0
0 0 7.42086e-13

3.74042e-11 1.40093e-12 0
1.40093e-12 4.56617e-11 0
0 0 2.49198e-11

2.01818e-11 -2.26862e-12 0
-2.26862e-12 1.11077e-11 0
0 0 9.38685e-12

3.75491e-11 4.50027e-12 0
4.50027e-12 4.59999e-11 0
0 0 2.50647e-11

1.39624e-11 -4.29989e-12 0
-4.29989e-12 -3.4042e-12 0
0 0 3.16747e-12

2.51243e-11 -1.73984e-12 0
-1.73984e-12 1.62172e-11 0
0 0 1.24025e-11

5.55366e-12 7.84919e-13 0
7.84919e-13 -2.76111e-11 0
0 0 -6.61724e-12

2.56739e-11 -2.95423e-12 0
-2.95423e-12 1.74997e-11 0
0 0 1.29521e-11

1.14832e-11 -1.52758e-12 0
-1.52758e-12 -1.37755e-11 0
0 0 -6.87689e-13

4.1742e-11 1.57575e-12 0
1.57575e-12 5.62935e-11 0
0 0 2.94107e-11

-6.20239e-12 6.99616e-12 0
6.99616e-12 -6.01092e-11 0
0 0 -1.98935e-11

4.68073e-11 2.73581e-12 0
2.73581e-12 6.81125e-11 0
0 0 3.44759e-11

1.11523e-11 1.40051e-11 0
1.40051e-11 -1.96148e-11 0
0 0 -2.53876e-12

2.77395e-11 -2.32337e-12 0
-2.32337e-12 5.09737e-12 0
0 0 9.85105e-12

-6.47985e-12 -8.28385e-12 0
-8.28385e-12 -2.28892e-11 0
0 0 -8.81071e-12

1.7745e-11 -1.11154e-11 0
-1.11154e-11 -1.82229e-11 0
0 0 -1.43361e-13

-1.14086e-11 -1.7475e-11 0
-1.7475e-11 -3.43896e-11 0
0 0 -1.37395e-11

2.99786e-11 2.54043e-12 0
2.54043e-12 5.12681e-11 0
0 0 2.4374e-11

1.74938e-11 -3.05711e-12 0
-3.05711e-12 3.64818e-12 0
0 0 6.34261e-12

2.19321e-11 1.20867e-11 0
1.20867e-11 3.2493e-11 0
0 0 1.63275e-11

1.86115e-11 -2.31079e-12 0
-2.31079e-12 6.25614e-12 0
0 0 7.4603e-12

1.93172e-11 -8.90318e-12 0
-8.90318e-12 2.17608e-11 0
0 0 1.23234e-11

-1.0763e-11 -1.51513e-11 0
-1.51513e-11 -1.91645e-11 0
0 0 -8.97825e-12

2.00622e-11 -1.54362e-11 0
-1.54362e-11 2.34992e-11 0
0 0 1.30684e-11

-1.41176e-11 -1.34261e-11 0
-1.34261e-11 -2.69922e-11 0
0 0 -1.23329e-11

2.31062e-11 -9.35701e-12 0
-9.35701e-12 6.91212e-11 0
0 0 2.76682e-11

-2.67269e-11 -6.46827e-12 0
-6.46827e-12 -5.66075e-11 0
0 0 -2.50003e-11

2.51615e-11 -7.28155e-12 0
-7.28155e-12 7.39168e-11 0
0 0 2.97235e-11

-3.07077e-11 -8.08066e-12 0
-8.08066e-12 -6.5896e-11 0
0 0 -2.89811e-11

TENSORS velocity_gradient double
1.16659e-14 5.74437e-15 0
-2.38698e-15 1.18239e-14 0
0 0 0

2.10039e-15 4.01534e-14 0
-3.55271e-15 -3.55271e-15 0
0 0 0

1.16659e-14 8.31536e-15 0
4.55191e-15 4.55191e-15 0
0 0 0

2.10039e-15 2.65423e-14 0
-1.06581e-14 -3.19744e-14 0
0 0 0

-1.12678e-14 3.76848e-14 0
-6.93889e-15 -6.93889e-15 0
0 0 0

-1.58065e-14 1.02407e-14 0
0 1.06581e-13 0
0 0 0

-1.12678e-14 2.50453e-14 0
-1.66533e-15 5.44009e-15 0
0 0 0

-1.58065e-14 8.40223e-15 0
-1.06581e-14 8.17124e-14 0
0 0 0

-1.75762e-14 9.59692e-15 0
-1.83742e-14 8.11018e-14 0
0 0 0

-1.68488e-14 2.43986e-15 0
-1.59872e-14 -1.29674e-13 0
0 0 0

-1.75762e-14 8.03324e-15 0
-1.53211e-14 5.57332e-14 0
0 0 0

-1.68488e-14 3.931e-15 0
-1.06581e-14 -1.24345e-13 0
0 0 0

-1.49839e-14 -4.54982e-16 0
-1.77636e-14 -1.06581e-14 0
0 0 0

4.67112e-16 -3.26382e-14 0
-2.84217e-14 -7.10543e-15 0
0 0 0

-1.49839e-14 2.5311e-15 0
-2.22045e-14 -7.99361e-15 0
0 0 0

4.67112e-16 -1.30322e-14 0
-2.13163e-14 -7.10543e-15 0
0 0 0

2.56348e-14 7.20633e-15 0
7.54952e-15 4.44089e-16 0
0 0 0

1.59998e-14 1.41116e-14 0
-1.77636e-15 -1.59872e-14 0
0 0 0

2.56348e-14 2.41728e-15 0
1.06581e-14 -3.55271e-15 0
0 0 0

1.59998e-14 2.86122e-15 0
-7.10543e-15 -5.68434e-14 0
0 0 0

4.88834e-15 1.33783e-14 0
-3.06422e-14 -2.35367e-14 0
0 0 0

-1.17092e-15 5.22591e-15 0
-3.19744e-14 9.59233e-14 0
0 0 0

4.88834e-15 2.68383e-15 0
-2.39808e-14 -3.81917e-14 0
0 0 0

-1.17092e-15 7.11715e-16 0
-2.84217e-14 1.06581e-13 0
0 0 0

-5.67964e-15 5.00526e-15 0
-3.02536e-14 6.92224e-14 0
0 0 0

-9.98918e-15 2.55225e-15 0
-3.55271e-14 -1.13687e-13 0
0 0 0

-5.67964e-15 5.12985e-16 0
-4.35207e-14 9.85878e-14 0
0 0 0

-9.98918e-15 -1.69638e-15 0
-2.13163e-14 -1.20792e-13 0
0 0 0

-1.39766e-14 2.42236e-15 0
-3.76366e-14 -3.05311e-14 0
0 0 0

-8.46638e-15 9.78225e-16 0
-5.68434e-14 -2.84217e-14 0
0 0 0

-1.39766e-14 -7.81225e-16 0
-3.56382e-14 -4.9849e-14 0
0 0 0

-8.46638e-15 9.39299e-15 0
-4.9738e-14 -4.9738e-14 0
0 0 0

2.38249e-14 -1.18442e-15 0
-2.03726e-14 -1.32672e-14 0
0 0 0

1.82721e-14 -6.06347e-15 0
-2.13163e-14 -4.9738e-14 0
0 0 0

2.38249e-14 -3.59876e-15 0
-1.33227e-14 8.88178e-16 0
0 0 0

1.82721e-14 -1.26625e-14 0
7.10543e-15 -3.55271e-14 0
0 0 0

1.16311e-14 -6.04691e-15 0
-3.71925e-15 -4.63518e-14 0
0 0 0

3.46319e-15 -5.86282e-15 0
-1.24345e-14 1.15463e-13 0
0 0 0

1.16311e-14 -1.28139e-14 0
3.33067e-15 -3.93019e-14 0
0 0 0

3.46319e-15 -1.44977e-14 0
-3.55271e-15 9.59233e-14 0
0 0 0

-5.04538e-15 -5.798e-15 0
-1.20459e-14 8.74301e-14 0
0 0 0

-8.96283e-15 -5.07738e-15 0
8.88178e-15 -1.19016e-13 0
0 0 0

-5.04538e-15 -1.39277e-14 0
-1.4988e-14 5.60663e-14 0
0 0 0

-8.96283e-15 -7.59074e-15 0
7.10543e-15 -1.06581e-13 0
0 0 0

-1.14881e-14 -3.66345e-15 0
1.94289e-14 -1.60982e-14 0
0 0 0

-1.44451e-14 1.20558e-14 0
2.4869e-14 -3.19744e-14 0
0 0 0

-1.14881e-14 -6.22432e-15 0
2.40918e-14 -1.14353e-14 0
0 0 0

-1.44451e-14 8.9668e-15 0
4.61853e-14 -1.77636e-14 0
0 0 0

3.53026e-15 -1.19871e-15 0
-7.88258e-15 -7.77156e-16 0
0 0 0

-6.85223e-16 -1.99747e-14 0
7.10543e-15 -3.55271e-14 0
0 0 0

3.53026e-15 6.01574e-15 0
-3.66374e-15 1.05471e-14 0
0 0 0

-6.85223e-16 -2.80001e-14 0
-1.06581e-14 -2.4869e-14 0
0 0 0

-8.63536e-15 -2.00595e-14 0
3.20299e-14 -3.90243e-14 0
0 0 0

-1.38475e-14 -2.10026e-14 0
1.95399e-14 1.1191e-13 0
0 0 0

-8.63536e-15 -2.77837e-14 0
2.58682e-14 -2.38698e-14 0
0 0 0

-1.38475e-14 -2.53774e-14 0
3.55271e-14 1.20792e-13 0
0 0 0

-1.80376e-14 -1.98104e-14 0
3.5083e-14 9.90319e-14 0
0 0 0

-1.55103e-14 -6.55663e-15 0
2.66454e-14 -8.70415e-14 0
0 0 0

-1.80376e-14 -2.34461e-14 0
3.41949e-14 9.10383e-14 0
0 0 0

-1.55103e-14 -1.97505e-15 0
4.26326e-14 -1.35003e-13 0
0 0 0

-1.07392e-14 -4.83483e-15 0
3.46945e-14 1.33782e-14 0
0 0 0

9.23298e-16 1.43073e-14 0
-3.55271e-15 -3.19744e-14 0
0 0 0

-1.07392e-14 5.05037e-16 0
3.41949e-14 5.77316e-15 0
0 0 0

9.23298e-16 2.80773e-14 0
7.10543e-15 -7.10543e-14 0
0 0 0

SCALARS active double 1
LOOKUP_TABLE default
1
1
1
1
1
1
1
1
1
1
1
1
1
1
1
1
1
1
1
1
1
1
1
1
1
1
1
1
1
1
1
1
1
1
1
1
1
1
1
1
1
1
1
1
1
1
1
1
1
1
1
1
1
1
1
1
1
1
1
1
1
1
1
1
SCALARS extent double 1
LOOKUP_TABLE default
0.0125
0.0125
0.0125
0.0125
0.0125
0.0125
0.0125
0.0125
0.0125
0.0125
0.0125
0.0125
0.0125
0.0125
0.0125
0.0125
0.0125
0.0125
0.0125
0.0125
0.0125
0.0125
0.0125
0.0125
0.0125
0.0125
0.0125
0.0125
0.0125
0.0125
0.0125
0.0125
0.0125
0.0125
0.0125
0.0125
0.0125
0.0125
0.0125
0.0125
0.0125
0.0125
0.0125
0.0125
0.0125
0.0125
0.0125
0.0125
0.0125
0.0125
0.0125
0.0125
0.0125
0.0125
0.0125
0.0125
0.0125
0.0125
0.0125
0.0125
0.0125
0.0125
0.0125
0.0125
SCALARS pressure double 1
LOOKUP_TABLE default
-1.17797e-12
1.93708e-11
-1.1333e-11
1.31374e-11
-1.95287e-11
-1.57782e-11
-2.72824e-11
-6.90332e-12
-1.64386e-11
1.40533e-11
-6.96409e-12
1.31605e-11
-4.48711e-11
2.26308e-11
-4.65278e-11
3.0474e-11
-7.31139e-12
-5.88316e-12
-9.19819e-12
-6.90781e-12
-4.20276e-11
-3.10732e-12
-3.61052e-11
-1.29582e-11
-1.61161e-11
5.87938e-12
-1.52025e-11
-7.86194e-12
-5.16979e-11
1.09002e-11
-4.86413e-11
2.35522e-11
1.88575e-12
-5.18667e-12
-5.3839e-12
-1.0719e-12
-3.59952e-11
-1.35588e-11
-3.62045e-11
-4.57523e-12
-1.79147e-11
9.55824e-12
-1.87086e-11
9.93328e-13
-4.24821e-11
2.8735e-11
-4.97986e-11
3.66709e-12
-1.42293e-11
1.27266e-11
2.07077e-13
1.98459e-11
-3.52069e-11
-9.16154e-12
-2.35842e-11
-1.0776e-11
-1.78005e-11
1.29686e-11
-1.88766e-11
1.78142e-11
-3.99652e-11
3.61116e-11
-4.29339e-11
4.18616e-11
SCALARS density double 1
LOOKUP_TABLE default
1000
1000
1000
1000
1000
1000
1000
1000
1000
1000
1000
1000
1000
1000
1000
1000
1000
1000
1000
1000
1000
1000
1000
1000
1000
1000
1000
1000
1000
1000
1000
1000
1000
1000
1000
1000
1000
1000
1000
1000
1000
1000
1000
1000
1000
1000
1000
1000
1000
1000
1000
1000
1000
1000
1000
1000
1000
1000
1000
1000
1000
1000
1000
1000
