# vtk DataFile Version 3.0
Frame: 33, Time: 0.55
ASCII
DATASET UNSTRUCTURED_GRID
POINTS 64 double
0.432436 0.0715283 0 
0.409654 0.082515 0 
0.440597 0.0951747 0 
0.417483 0.107016 0 
0.386504 0.0925922 0 
0.361776 0.102873 0 
0.395442 0.115893 0 
0.372569 0.124924 0 
0.339306 0.114398 0 
0.315261 0.124421 0 
0.350842 0.137542 0 
0.327926 0.146751 0 
0.293175 0.139074 0 
0.272028 0.150601 0 
0.305254 0.160386 0 
0.283506 0.171575 0 
0.448756 0.118273 0 
0.425944 0.130069 0 
0.462297 0.137411 0 
0.438665 0.149411 0 
0.403899 0.13922 0 
0.382806 0.148715 0 
0.417585 0.159833 0 
0.396961 0.170017 0 
0.361536 0.160438 0 
0.338803 0.167796 0 
0.375144 0.182176 0 
0.351597 0.191072 0 
0.317752 0.181058 0 
0.295409 0.196074 0 
0.329765 0.203555 0 
0.308795 0.217007 0 
0.475405 0.159318 0 
0.451685 0.16911 0 
0.485653 0.181339 0 
0.46263 0.191964 0 
0.4302 0.180062 0 
0.408692 0.19247 0 
0.441914 0.202714 0 
0.420103 0.215875 0 
0.386127 0.205016 0 
0.36336 0.213643 0 
0.396231 0.227858 0 
0.376124 0.237817 0 
0.341928 0.225528 0 
0.321103 0.238525 0 
0.355985 0.250091 0 
0.332871 0.262093 0 
0.49784 0.200737 0 
0.474855 0.212696 0 
0.508309 0.222839 0 
0.48726 0.235632 0 
0.455296 0.225662 0 
0.432513 0.236794 0 
0.466587 0.249509 0 
0.443638 0.260394 0 
0.409501 0.248992 0 
0.390091 0.261922 0 
0.422368 0.272946 0 
0.401874 0.285844 0 
0.369014 0.272639 0 
0.344467 0.283318 0 
0.379223 0.295119 0 
0.355755 0.305221 0 
CELLS 64 128
1 0
1 1
1 2
1 3
1 4
1 5
1 6
1 7
1 8
1 9
1 10
1 11
1 12
1 13
1 14
1 15
1 16
1 17
1 18
1 19
1 20
1 21
1 22
1 23
1 24
1 25
1 26
1 27
1 28
1 29
1 30
1 31
1 32
1 33
1 34
1 35
1 36
1 37
1 38
1 39
1 40
1 41
1 42
1 43
1 44
1 45
1 46
1 47
1 48
1 49
1 50
1 51
1 52
1 53
1 54
1 55
1 56
1 57
1 58
1 59
1 60
1 61
1 62
1 63
CELL_TYPES 64
1
1
1
1
1
1
1
1
1
1
1
1
1
1
1
1
1
1
1
1
1
1
1
1
1
1
1
1
1
1
1
1
1
1
1
1
1
1
1
1
1
1
1
1
1
1
1
1
1
1
1
1
1
1
1
1
1
1
1
1
1
1
1
1
POINT_DATA 64
VECTORS displacement double
0.0199359 -0.340972 0 
-0.00284564 -0.354985 0 
0.00309675 -0.317325 0 
-0.0200168 -0.330484 0 
-0.0259957 -0.369908 0 
-0.0507244 -0.384627 0 
-0.0420584 -0.346607 0 
-0.0649312 -0.362576 0 
-0.0731941 -0.398102 0 
-0.0972393 -0.413079 0 
-0.0866575 -0.374958 0 
-0.109574 -0.390749 0 
-0.119325 -0.423426 0 
-0.140472 -0.436899 0 
-0.132246 -0.402114 0 
-0.153994 -0.415925 0 
-0.0137443 -0.294227 0 
-0.0365555 -0.307431 0 
-0.0252028 -0.275089 0 
-0.048835 -0.288089 0 
-0.0586012 -0.32328 0 
-0.0796941 -0.338785 0 
-0.0699148 -0.302667 0 
-0.0905388 -0.317483 0 
-0.100964 -0.352062 0 
-0.123697 -0.369704 0 
-0.112356 -0.330324 0 
-0.135903 -0.346428 0 
-0.144748 -0.381442 0 
-0.167091 -0.391426 0 
-0.157735 -0.358945 0 
-0.178705 -0.370493 0 
-0.0370955 -0.253182 0 
-0.0608151 -0.26839 0 
-0.0518471 -0.231161 0 
-0.07487 -0.245536 0 
-0.0823004 -0.282438 0 
-0.103808 -0.29503 0 
-0.0955857 -0.259786 0 
-0.117397 -0.271625 0 
-0.126373 -0.307484 0 
-0.14914 -0.323857 0 
-0.141269 -0.284642 0 
-0.161376 -0.299683 0 
-0.170572 -0.336972 0 
-0.191397 -0.348975 0 
-0.181515 -0.312409 0 
-0.204629 -0.325407 0 
-0.0646599 -0.211763 0 
-0.0876452 -0.224804 0 
-0.0791914 -0.189661 0 
-0.10024 -0.201868 0 
-0.107204 -0.236838 0 
-0.129987 -0.250706 0 
-0.120913 -0.212991 0 
-0.143862 -0.227106 0 
-0.152999 -0.263508 0 
-0.172409 -0.275578 0 
-0.165132 -0.239554 0 
-0.185626 -0.251656 0 
-0.193486 -0.289861 0 
-0.218033 -0.304182 0 
-0.208277 -0.267381 0 
-0.231745 -0.282279 0 
VECTORS velocity double
0.882485 -0.250657 0 
0.0985257 -0.81191 0 
0.31063 -0.359749 0 
-0.511597 -0.302523 0 
0.93073 -0.887807 0 
-0.346474 -0.640803 0 
0.42913 -0.572636 0 
0.100787 -0.596589 0 
0.674167 -1.14273 0 
0.120475 -1.00769 0 
0.429683 -0.743863 0 
0.0533491 -0.684379 0 
0.0367221 -1.02198 0 
0.0332124 -1.24994 0 
0.0424508 -1.02572 0 
-0.613012 -1.4434 0 
-0.00111354 -0.48335 0 
-0.30323 -0.345801 0 
0.12174 -0.536143 0 
-0.0721189 -0.702182 0 
0.234499 -0.531275 0 
-0.00510529 -0.738383 0 
-0.0528861 -0.708255 0 
-0.587555 -0.920283 0 
-0.299978 -0.861828 0 
-0.533327 -1.03949 0 
-0.468418 -0.932696 0 
-0.615803 -0.715388 0 
-0.0627052 -0.940489 0 
-0.343855 -1.39087 0 
-0.174353 -0.140429 0 
-0.928237 -1.38852 0 
0.218197 0.28348 0 
0.0429219 -0.429568 0 
-0.543306 -0.0135253 0 
-0.386505 -0.00373025 0 
-0.205136 -0.527863 0 
-0.409535 -0.583263 0 
-0.907715 -0.676845 0 
-0.95129 -0.677599 0 
-0.013307 -0.611168 0 
-0.447017 -0.772967 0 
-0.760998 -0.431504 0 
-1.3063 -0.746997 0 
-0.873833 -1.02229 0 
-1.30127 -1.72126 0 
-0.927537 -0.474715 0 
-0.689252 -0.717127 0 
-0.439763 0.0368725 0 
-0.529051 -0.135598 0 
-0.770178 0.316468 0 
-1.13216 -0.124305 0 
-0.608443 -0.725605 0 
-0.465923 -0.537327 0 
-1.16668 0.128729 0 
-1.06364 -0.133149 0 
-0.838624 -0.661113 0 
-1.15625 -1.11374 0 
-1.38893 -0.787993 0 
-1.03601 -0.383034 0 
-0.208623 -0.811053 0 
-1.06801 -1.32111 0 
-0.984167 -0.250617 0 
-1.57449 -0.905143 0 
SCALARS mass double 1
LOOKUP_TABLE default
0.625
0.625
0.625
0.625
0.625
0.625
0.625
0.625
0.625
0.625
0.625
0.625
0.625
0.625
0.625
0.625
0.625
0.625
0.625
0.625
0.625
0.625
0.625
0.625
0.625
0.625
0.625
0.625
0.625
0.625
0.625
0.625
0.625
0.625
0.625
0.625
0.625
0.625
0.625
0.625
0.625
0.625
0.625
0.625
0.625
0.625
0.625
0.625
0.625
0.625
0.625
0.625
0.625
0.625
0.625
0.625
0.625
0.625
0.625
0.625
0.625
0.625
0.625
0.625
SCALARS volume double 1
LOOKUP_TABLE default
0.000651232
0.000585948
0.000637106
0.000646422
0.000639523
0.000645354
0.000601499
0.000628997
0.000612569
0.000656394
0.000616854
0.000608868
0.000627816
0.000614501
0.000640223
0.000627508
0.000593245
0.00061848
0.000656302
0.000626283
0.000582077
0.000658374
0.000553379
0.000593884
0.000666139
0.000600433
0.000611658
0.00062158
0.000644539
0.000618495
0.000606732
0.000630306
0.00065373
0.000619316
0.000607218
0.000606153
0.000631041
0.000660738
0.000633878
0.000607815
0.000658586
0.000636682
0.000612164
0.000613863
0.000621486
0.000627847
0.000662753
0.000635294
0.000612557
0.000648189
0.000626062
0.000611537
0.000635488
0.000628833
0.000624364
0.0006237
0.000648471
0.00062939
0.000624873
0.00058669
0.000622106
0.000605086
0.00062033
0.000624394
VECTORS momentum double
0.551553 -0.156661 0 
0.0615785 -0.507444 0 
0.194144 -0.224843 0 
-0.319748 -0.189077 0 
0.581706 -0.55488 0 
-0.216546 -0.400502 0 
0.268206 -0.357897 0 
0.062992 -0.372868 0 
0.421354 -0.714207 0 
0.0752969 -0.629807 0 
0.268552 -0.464915 0 
0.0333432 -0.427737 0 
0.0229513 -0.638739 0 
0.0207577 -0.781212 0 
0.0265318 -0.641077 0 
-0.383132 -0.902126 0 
-0.00069596 -0.302094 0 
-0.189519 -0.216126 0 
0.0760872 -0.335089 0 
-0.0450743 -0.438864 0 
0.146562 -0.332047 0 
-0.0031908 -0.461489 0 
-0.0330538 -0.442659 0 
-0.367222 -0.575177 0 
-0.187486 -0.538642 0 
-0.333329 -0.649684 0 
-0.292761 -0.582935 0 
-0.384877 -0.447118 0 
-0.0391908 -0.587806 0 
-0.214909 -0.869294 0 
-0.108971 -0.0877682 0 
-0.580148 -0.867827 0 
0.136373 0.177175 0 
0.0268262 -0.26848 0 
-0.339566 -0.00845332 0 
-0.241566 -0.00233141 0 
-0.12821 -0.329915 0 
-0.25596 -0.364539 0 
-0.567322 -0.423028 0 
-0.594556 -0.423499 0 
-0.00831688 -0.38198 0 
-0.279385 -0.483105 0 
-0.475624 -0.26969 0 
-0.816438 -0.466873 0 
-0.546145 -0.638933 0 
-0.813295 -1.07579 0 
-0.579711 -0.296697 0 
-0.430782 -0.448205 0 
-0.274852 0.0230453 0 
-0.330657 -0.0847486 0 
-0.481361 0.197792 0 
-0.707597 -0.0776905 0 
-0.380277 -0.453503 0 
-0.291202 -0.335829 0 
-0.729178 0.0804557 0 
-0.664776 -0.0832179 0 
-0.52414 -0.413196 0 
-0.722657 -0.696089 0 
-0.868079 -0.492496 0 
-0.647509 -0.239396 0 
-0.130389 -0.506908 0 
-0.667506 -0.825695 0 
-0.615104 -0.156636 0 
-0.984057 -0.565714 0 
VECTORS body_force double
0 -9.81 0 
0 -9.81 0 
0 -9.81 0 
0 -9.81 0 
0 -9.81 0 
0 -9.81 0 
0 -9.81 0 
0 -9.81 0 
0 -9.81 0 
0 -9.81 0 
0 -9.81 0 
0 -9.81 0 
0 -9.81 0 
0 -9.81 0 
0 -9.81 0 
0 -9.81 0 
0 -9.81 0 
0 -9.81 0 
0 -9.81 0 
0 -9.81 0 
0 -9.81 0 
0 -9.81 0 
0 -9.81 0 
0 -9.81 0 
0 -9.81 0 
0 -9.81 0 
0 -9.81 0 
0 -9.81 0 
0 -9.81 0 
0 -9.81 0 
0 -9.81 0 
0 -9.81 0 
0 -9.81 0 
0 -9.81 0 
0 -9.81 0 
0 -9.81 0 
0 -9.81 0 
0 -9.81 0 
0 -9.81 0 
0 -9.81 0 
0 -9.81 0 
0 -9.81 0 
0 -9.81 0 
0 -9.81 0 
0 -9.81 0 
0 -9.81 0 
0 -9.81 0 
0 -9.81 0 
0 -9.81 0 
0 -9.81 0 
0 -9.81 0 
0 -9.81 0 
0 -9.81 0 
0 -9.81 0 
0 -9.81 0 
0 -9.81 0 
0 -9.81 0 
0 -9.81 0 
0 -9.81 0 
0 -9.81 0 
0 -9.81 0 
0 -9.81 0 
0 -9.81 0 
0 -9.81 0 
TENSORS cauchy_stress double
8121.31 1264.56 0
1264.56 -214.735 0
0 0 2371.97

-12669.4 -3457.22 0
-3457.22 261.525 0
0 0 -3722.37

1520.81 1894.83 0
1894.83 2168.46 0
0 0 1106.78

1732.38 343.025 0
343.025 4748.64 0
0 0 1944.31

2506.88 -2409.08 0
-2409.08 1910.56 0
0 0 1325.23

4188.82 -5948.75 0
-5948.75 1974.03 0
0 0 1848.86

-2091.01 6325.48 0
6325.48 -5279.59 0
0 0 -2211.18

-5715.93 -4222.19 0
-4222.19 6941.86 0
0 0 367.779

-2915.35 -849.593 0
-849.593 -948.085 0
0 0 -1159.03

7062.79 65.7602 0
65.7602 2362.14 0
0 0 2827.48

-3444.22 -558.909 0
-558.909 921.158 0
0 0 -756.918

-3934.15 -386.642 0
-386.642 -1094.75 0
0 0 -1508.67

1922.12 457.073 0
457.073 -1057.63 0
0 0 259.347

-2772.38 -1030.92 0
-1030.92 -485.39 0
0 0 -977.33

1398.37 -2544.77 0
-2544.77 3229.51 0
0 0 1388.36

457.556 1429.09 0
1429.09 312.547 0
0 0 231.031

-6464.03 2635.91 0
2635.91 -3563.71 0
0 0 -3008.32

-506.318 -5303.17 0
-5303.17 -1510.48 0
0 0 -605.038

4253 -177.069 0
-177.069 5145.09 0
0 0 2819.43

1385.94 -4414.59 0
-4414.59 -991.615 0
0 0 118.298

-3454.88 6835.8 0
6835.8 -10227.6 0
0 0 -4104.75

-4363.55 2334.12 0
2334.12 14367.7 0
0 0 3001.26

-5136.04 6833.19 0
6833.19 -18269.5 0
0 0 -7021.65

-7261.4 -464.512 0
-464.512 -2559.17 0
0 0 -2946.17

-1050.52 2947.01 0
2947.01 13309.6 0
0 0 3677.73

-2939.78 8538.72 0
8538.72 -4771.97 0
0 0 -2313.53

1677.99 3871.37 0
3871.37 -5827.81 0
0 0 -1244.94

4655.43 2124.61 0
2124.61 -5710.63 0
0 0 -316.557

4196.93 -2361.13 0
-2361.13 1723.12 0
0 0 1776.02

733.562 371.718 0
371.718 -2745.74 0
0 0 -603.652

-2967.83 -199.725 0
-199.725 -2736.82 0
0 0 -1711.39

2322.03 800.617 0
800.617 -696.156 0
0 0 487.761

624.83 2006.66 0
2006.66 8017.98 0
0 0 2592.84

-1647.63 -1485.82 0
-1485.82 -109.412 0
0 0 -527.114

-3897.77 -1458.55 0
-1458.55 -1652.84 0
0 0 -1665.18

-4685.2 -225.745 0
-225.745 -1202.99 0
0 0 -1766.46

261.805 -326.883 0
-326.883 1587.95 0
0 0 554.927

-4431.6 -4098.95 0
-4098.95 15125.1 0
0 0 3208.04

983.55 363.889 0
363.889 1728.85 0
0 0 813.719

2953.28 -655.16 0
-655.16 -8315.01 0
0 0 -1608.52

2388.78 -6938.36 0
-6938.36 7677.29 0
0 0 3019.82

-6474.44 -4659.89 0
-4659.89 10035.8 0
0 0 1068.39

5920.02 4435.6 0
4435.6 -9910.69 0
0 0 -1197.2

-1714.35 8765.8 0
8765.8 -1743.39 0
0 0 -1037.32

-7177.51 -646.691 0
-646.691 6093.35 0
0 0 -325.248

1137.36 1479.57 0
1479.57 -263.461 0
0 0 262.171

9595.38 4413.6 0
4413.6 1683.59 0
0 0 3383.69

814.16 -728.266 0
-728.266 2327.42 0
0 0 942.475

-984.931 -1280.77 0
-1280.77 -2882.23 0
0 0 -1160.15

4232.04 871.509 0
871.509 2773.79 0
0 0 2101.75

1039.53 553.876 0
553.876 -713.06 0
0 0 97.941

-2032.93 -1303.43 0
-1303.43 -2154.81 0
0 0 -1256.32

3050.07 2026.85 0
2026.85 150.314 0
0 0 960.115

-2885.01 1006 0
1006 4060.79 0
0 0 352.734

718.677 -725.18 0
-725.18 -914.318 0
0 0 -58.6924

-2710.45 2280.91 0
2280.91 2310.18 0
0 0 -120.082

2303.61 214.74 0
214.74 4785.96 0
0 0 2126.87

-8931.79 2290.02 0
2290.02 10277.8 0
0 0 403.804

2086.42 364.701 0
364.701 -2125.57 0
0 0 -11.7459

-5285.18 -776.637 0
-776.637 -6879.36 0
0 0 -3649.36

-1546.89 -913.795 0
-913.795 654.393 0
0 0 -267.748

-4066.62 -3839.09 0
-3839.09 -2160.52 0
0 0 -1868.14

1599.97 3388.65 0
3388.65 -3042.21 0
0 0 -432.673

-827.651 -1759.75 0
-1759.75 641.108 0
0 0 -55.9631

TENSORS velocity_gradient double
2.73444 -9.07896 0
4.30989 -1.79408 0
0 0 0

0.67118 -4.8637 0
3.86427 -0.883673 0
0 0 0

-1.41586 -9.56365 0
3.41999 -1.84079 0
0 0 0

-1.87309 -5.33121 0
3.36692 -0.757667 0
0 0 0

1.41318 -1.47669 0
4.15945 -1.06032 0
0 0 0

0.503821 -3.43559 0
4.32476 -1.0274 0
0 0 0

-0.364339 -6.3751 0
4.16688 -1.09836 0
0 0 0

-0.723081 -5.29892 0
4.15021 -0.875585 0
0 0 0

-0.0862752 -4.47719 0
4.40194 -0.513683 0
0 0 0

0.231415 -5.22958 0
4.29409 -0.258266 0
0 0 0

-0.500356 -4.40492 0
4.07406 -0.638712 0
0 0 0

0.749749 -6.2013 0
4.2391 -0.240404 0
0 0 0

1.84066 -5.45562 0
4.16087 -0.230427 0
0 0 0

1.37389 -5.65601 0
4.25004 -1.37278 0
0 0 0

0.356123 -7.83478 0
4.91551 -1.71342 0
0 0 0

0.414437 -6.74131 0
4.01352 -1.95362 0
0 0 0

-0.629397 -3.13222 0
3.63724 0.316471 0
0 0 0

-0.0266779 -4.64316 0
3.92466 -0.549831 0
0 0 0

-0.993237 -3.29316 0
6.52723 1.89867 0
0 0 0

1.15699 -6.40094 0
4.42623 0.0799755 0
0 0 0

0.310859 -6.25245 0
4.11992 -1.04134 0
0 0 0

-1.65043 -7.15557 0
3.75809 -0.530852 0
0 0 0

1.13274 -8.48824 0
4.76329 -0.331964 0
0 0 0

-0.415184 -8.12389 0
3.37208 -0.640613 0
0 0 0

-1.37232 -9.89008 0
3.2404 1.23492 0
0 0 0

-0.124211 -9.85824 0
5.56306 1.00126 0
0 0 0

-0.197438 -9.14093 0
1.9983 0.442902 0
0 0 0

-0.32373 -10.1708 0
3.50227 1.49333 0
0 0 0

-0.932601 -8.59404 0
6.66111 -0.715922 0
0 0 0

-1.22066 -8.24372 0
4.03538 -1.92714 0
0 0 0

-1.3157 -8.7201 0
8.12544 -2.04888 0
0 0 0

0.171043 -11.1333 0
8.3534 -2.68824 0
0 0 0

-1.40532 -9.27132 0
8.27805 0.528881 0
0 0 0

-0.530319 -9.56159 0
7.09648 0.688857 0
0 0 0

-1.02468 -9.08968 0
8.03618 0.413462 0
0 0 0

-0.837142 -9.48802 0
7.91701 0.666574 0
0 0 0

0.365729 -8.97437 0
5.47779 0.120879 0
0 0 0

-0.110952 -8.16049 0
5.92183 -0.637275 0
0 0 0

-0.270709 -8.33864 0
6.14159 0.489516 0
0 0 0

-0.22116 -8.18001 0
6.27268 0.331046 0
0 0 0

0.459517 -7.83438 0
1.32052 -0.430805 0
0 0 0

0.115366 -6.83716 0
1.70789 -1.52656 0
0 0 0

-0.390363 -8.15896 0
3.40302 -0.0152525 0
0 0 0

-0.9144 -7.38841 0
2.8642 -0.907563 0
0 0 0

1.16765 -7.13081 0
8.45388 -2.28468 0
0 0 0

2.76029 -9.62423 0
8.61446 -2.53608 0
0 0 0

-1.11863 -5.47304 0
3.4383 -0.484495 0
0 0 0

2.65085 -3.32279 0
9.16817 -0.2792 0
0 0 0

-1.6548 -8.31279 0
6.45496 0.885995 0
0 0 0

-0.795885 -8.09397 0
7.97187 0.798518 0
0 0 0

-1.05233 -7.42058 0
4.62561 1.14099 0
0 0 0

-0.960992 -8.18517 0
8.22043 0.935807 0
0 0 0

-0.876612 -7.955 0
8.08144 0.586912 0
0 0 0

-0.0286182 -8.06373 0
6.40779 0.412643 0
0 0 0

-0.823588 -6.34694 0
8.65669 0.517922 0
0 0 0

-0.565404 -5.38147 0
5.90066 -1.03678 0
0 0 0

-0.12482 -5.94334 0
6.23713 0.885455 0
0 0 0

-0.80655 -3.07364 0
3.95642 2.02333 0
0 0 0

-1.37819 -4.11186 0
4.63446 0.563314 0
0 0 0

-1.51569 -3.01564 0
3.97932 1.9774 0
0 0 0

-0.298162 -4.06569 0
4.42304 1.11277 0
0 0 0

0.419086 -4.4058 0
9.16994 0.110417 0
0 0 0

0.687515 -3.86719 0
5.48074 1.50858 0
0 0 0

0.821133 -4.83071 0
6.3659 -1.73933 0
0 0 0

SCALARS active double 1
LOOKUP_TABLE default
1
1
1
1
1
1
1
1
1
1
1
1
1
1
1
1
1
1
1
1
1
1
1
1
1
1
1
1
1
1
1
1
1
1
1
1
1
1
1
1
1
1
1
1
1
1
1
1
1
1
1
1
1
1
1
1
1
1
1
1
1
1
1
1
SCALARS extent double 1
LOOKUP_TABLE default
0.0125
0.0125
0.0125
0.0125
0.0125
0.0125
0.0125
0.0125
0.0125
0.0125
0.0125
0.0125
0.0125
0.0125
0.0125
0.0125
0.0125
0.0125
0.0125
0.0125
0.0125
0.0125
0.0125
0.0125
0.0125
0.0125
0.0125
0.0125
0.0125
0.0125
0.0125
0.0125
0.0125
0.0125
0.0125
0.0125
0.0125
0.0125
0.0125
0.0125
0.0125
0.0125
0.0125
0.0125
0.0125
0.0125
0.0125
0.0125
0.0125
0.0125
0.0125
0.0125
0.0125
0.0125
0.0125
0.0125
0.0125
0.0125
0.0125
0.0125
0.0125
0.0125
0.0125
0.0125
SCALARS pressure double 1
LOOKUP_TABLE default
-3426.18
5376.75
-1598.69
-2808.44
-1914.22
-2670.57
3193.93
-531.236
1674.16
-4084.14
1093.33
2179.19
-374.612
1411.7
-2005.41
-333.711
4345.36
873.944
-4072.51
-170.875
5929.09
-4335.15
10142.4
4255.58
-5312.27
3341.76
1798.25
457.249
-2565.36
871.942
2472.01
-704.543
-3745.22
761.386
2405.26
2551.55
-801.561
-4633.84
-1175.37
2323.42
-4361.96
-1543.24
1729.29
1498.35
469.803
-378.691
-4887.55
-1361.35
1675.77
-3035.86
-141.47
1814.69
-1386.83
-509.504
84.778
173.451
-3072.15
-583.273
16.9663
5271.3
386.747
2698.42
624.971
80.8356
SCALARS density double 1
LOOKUP_TABLE default
959.72
1066.65
980.999
966.86
977.291
968.461
1039.07
993.645
1020.29
952.172
1013.21
1026.5
995.515
1017.08
976.222
996.003
1053.53
1010.54
952.305
997.952
1073.74
949.308
1129.42
1052.39
938.242
1040.92
1021.81
1005.5
969.685
1010.52
1030.11
991.581
956.052
1009.18
1029.28
1031.09
990.427
945.912
985.995
1028.27
949.003
981.652
1020.97
1018.14
1005.65
995.466
943.036
983.796
1020.31
964.225
998.304
1022.02
983.496
993.905
1001.02
1002.08
963.805
993.025
1000.2
1065.3
1004.65
1032.91
1007.53
1000.97
