# vtk DataFile Version 3.0
Frame: 58, Time: 0.967
ASCII
DATASET UNSTRUCTURED_GRID
POINTS 64 double
0.391817 0.317279 0 
0.415899 0.307965 0 
0.381882 0.292987 0 
0.406721 0.282321 0 
0.439275 0.297333 0 
0.464024 0.287026 0 
0.429737 0.272355 0 
0.454468 0.263021 0 
0.488569 0.278591 0 
0.512001 0.267489 0 
0.478755 0.25412 0 
0.501139 0.243962 0 
0.536472 0.26036 0 
0.56029 0.253138 0 
0.526051 0.236671 0 
0.54946 0.227668 0 
0.372545 0.269797 0 
0.396787 0.259234 0 
0.365265 0.247081 0 
0.390494 0.235967 0 
0.421262 0.249325 0 
0.445498 0.240498 0 
0.414927 0.225318 0 
0.437525 0.21619 0 
0.469085 0.230847 0 
0.491573 0.22027 0 
0.46116 0.206101 0 
0.484304 0.19675 0 
0.516324 0.211653 0 
0.541683 0.204594 0 
0.507829 0.187597 0 
0.532627 0.179917 0 
0.357485 0.224567 0 
0.381445 0.211639 0 
0.350894 0.20243 0 
0.372195 0.188613 0 
0.40561 0.202607 0 
0.428943 0.191612 0 
0.396031 0.178934 0 
0.418806 0.168722 0 
0.452458 0.180965 0 
0.476518 0.172112 0 
0.442571 0.158416 0 
0.466481 0.148838 0 
0.500618 0.162116 0 
0.525858 0.154257 0 
0.490692 0.138443 0 
0.516334 0.129716 0 
0.342411 0.181778 0 
0.363202 0.166895 0 
0.325507 0.162093 0 
0.348453 0.142189 0 
0.385967 0.157206 0 
0.410753 0.144257 0 
0.373895 0.132981 0 
0.399159 0.12054 0 
0.434565 0.134787 0 
0.458422 0.125564 0 
0.422091 0.111415 0 
0.44751 0.102521 0 
0.483437 0.114078 0 
0.507507 0.105847 0 
0.472997 0.0907902 0 
0.496776 0.0821748 0 
CELLS 64 128
1 0
1 1
1 2
1 3
1 4
1 5
1 6
1 7
1 8
1 9
1 10
1 11
1 12
1 13
1 14
1 15
1 16
1 17
1 18
1 19
1 20
1 21
1 22
1 23
1 24
1 25
1 26
1 27
1 28
1 29
1 30
1 31
1 32
1 33
1 34
1 35
1 36
1 37
1 38
1 39
1 40
1 41
1 42
1 43
1 44
1 45
1 46
1 47
1 48
1 49
1 50
1 51
1 52
1 53
1 54
1 55
1 56
1 57
1 58
1 59
1 60
1 61
1 62
1 63
CELL_TYPES 64
1
1
1
1
1
1
1
1
1
1
1
1
1
1
1
1
1
1
1
1
1
1
1
1
1
1
1
1
1
1
1
1
1
1
1
1
1
1
1
1
1
1
1
1
1
1
1
1
1
1
1
1
1
1
1
1
1
1
1
1
1
1
1
1
POINT_DATA 64
VECTORS displacement double
-0.120683 -0.295221 0 
-0.0966009 -0.329535 0 
-0.155618 -0.319513 0 
-0.130779 -0.355179 0 
-0.0732248 -0.365167 0 
-0.0484765 -0.400474 0 
-0.107763 -0.390145 0 
-0.0830321 -0.424479 0 
-0.0239312 -0.433909 0 
-0.000498906 -0.470011 0 
-0.0587445 -0.45838 0 
-0.0363611 -0.493538 0 
0.0239715 -0.50214 0 
0.0477904 -0.534362 0 
-0.0114493 -0.525829 0 
0.0119599 -0.559832 0 
-0.189955 -0.342703 0 
-0.165713 -0.378266 0 
-0.222235 -0.365419 0 
-0.197006 -0.401533 0 
-0.141238 -0.413175 0 
-0.117002 -0.447002 0 
-0.172573 -0.437182 0 
-0.149975 -0.47131 0 
-0.0934149 -0.481653 0 
-0.0709269 -0.51723 0 
-0.12634 -0.506399 0 
-0.103196 -0.54075 0 
-0.0461757 -0.550847 0 
-0.0208166 -0.582906 0 
-0.0796714 -0.574903 0 
-0.0548731 -0.607583 0 
-0.255015 -0.387933 0 
-0.231055 -0.425861 0 
-0.286606 -0.41007 0 
-0.265305 -0.448887 0 
-0.20689 -0.459893 0 
-0.183557 -0.495888 0 
-0.241469 -0.483566 0 
-0.218694 -0.518778 0 
-0.160042 -0.531535 0 
-0.135982 -0.565388 0 
-0.194929 -0.554084 0 
-0.171019 -0.588662 0 
-0.111882 -0.600384 0 
-0.0866422 -0.633243 0 
-0.146808 -0.624057 0 
-0.121166 -0.657784 0 
-0.320089 -0.430722 0 
-0.299298 -0.470605 0 
-0.361993 -0.450407 0 
-0.339047 -0.495311 0 
-0.276533 -0.505294 0 
-0.251747 -0.543243 0 
-0.313605 -0.529519 0 
-0.288341 -0.56696 0 
-0.227935 -0.577713 0 
-0.204078 -0.611936 0 
-0.265409 -0.601085 0 
-0.23999 -0.634979 0 
-0.179063 -0.648422 0 
-0.154993 -0.681653 0 
-0.214503 -0.67171 0 
-0.190724 -0.705325 0 
VECTORS velocity double
-0.408768 1.02696 0 
-0.618156 1.39348 0 
-0.0575105 0.790488 0 
0.311363 1.42235 0 
-0.192601 1.45733 0 
-0.543949 1.46686 0 
-0.1459 1.56449 0 
-0.0488625 1.5065 0 
-0.546464 1.82156 0 
-0.115776 1.7221 0 
0.337096 1.69178 0 
0.175236 1.63663 0 
-0.220069 1.77027 0 
-0.0330579 1.85836 0 
0.397022 1.63848 0 
0.199534 1.94 0 
-0.402816 1.08773 0 
0.094257 1.22932 0 
0.122444 0.713792 0 
0.100959 1.43367 0 
-0.0106222 1.3322 0 
0.30262 1.08669 0 
0.192604 1.33586 0 
0.171548 1.39059 0 
0.547453 1.51953 0 
0.405982 1.66176 0 
0.345613 1.39971 0 
0.275963 1.67309 0 
0.0721717 1.55718 0 
0.217561 1.63887 0 
0.0422499 1.64437 0 
0.0348022 2.14774 0 
0.555676 0.989922 0 
0.482668 0.966553 0 
0.16942 1.13179 0 
-0.196356 1.04748 0 
0.656445 1.24588 0 
0.307677 1.61932 0 
-0.147284 1.02443 0 
0.158285 1.57708 0 
0.32311 1.83529 0 
-0.0745847 1.77976 0 
0.0629286 1.07282 0 
-0.331191 1.64386 0 
0.121168 1.23367 0 
0.605682 2.29058 0 
0.391314 1.54164 0 
0.399656 2.10217 0 
0.260972 1.01342 0 
-0.00977593 0.974369 0 
-0.232486 1.36001 0 
0.378078 1.02133 0 
-0.0924651 1.37847 0 
0.369263 1.42368 0 
-0.0213768 1.37862 0 
0.288504 0.964493 0 
0.553928 1.42005 0 
0.354518 1.80349 0 
0.374705 1.60974 0 
0.48603 2.21877 0 
0.808514 1.82318 0 
0.918014 1.9644 0 
0.2871 1.69512 0 
0.408722 1.82517 0 
SCALARS mass double 1
LOOKUP_TABLE default
0.625
0.625
0.625
0.625
0.625
0.625
0.625
0.625
0.625
0.625
0.625
0.625
0.625
0.625
0.625
0.625
0.625
0.625
0.625
0.625
0.625
0.625
0.625
0.625
0.625
0.625
0.625
0.625
0.625
0.625
0.625
0.625
0.625
0.625
0.625
0.625
0.625
0.625
0.625
0.625
0.625
0.625
0.625
0.625
0.625
0.625
0.625
0.625
0.625
0.625
0.625
0.625
0.625
0.625
0.625
0.625
0.625
0.625
0.625
0.625
0.625
0.625
0.625
0.625
SCALARS volume double 1
LOOKUP_TABLE default
0.000622342
0.000616384
0.000624166
0.000613352
0.000634955
0.000638976
0.00062979
0.000633139
0.000619137
0.000623188
0.000623579
0.000618199
0.0006289
0.00062542
0.000630127
0.000611571
0.000620894
0.000628214
0.000582823
0.000637936
0.000615616
0.000614314
0.000606286
0.00061635
0.000617973
0.000608148
0.000622669
0.000615246
0.000650961
0.000581351
0.0006247
0.000607547
0.000597097
0.000624264
0.000574838
0.000556143
0.000621768
0.000609184
0.000623892
0.000609326
0.000640341
0.000624563
0.000599102
0.000606307
0.000617584
0.000653496
0.00063875
0.00063757
0.000573945
0.000628856
0.000616579
0.000647092
0.000600767
0.00065622
0.000655058
0.00062511
0.000617142
0.000644621
0.000623093
0.000624921
0.000625754
0.000636396
0.000621283
0.000632285
VECTORS momentum double
-0.25548 0.641852 0 
-0.386348 0.870924 0 
-0.0359441 0.494055 0 
0.194602 0.88897 0 
-0.120376 0.910834 0 
-0.339968 0.916786 0 
-0.0911874 0.977806 0 
-0.030539 0.941563 0 
-0.34154 1.13847 0 
-0.07236 1.07631 0 
0.210685 1.05736 0 
0.109523 1.02289 0 
-0.137543 1.10642 0 
-0.0206612 1.16148 0 
0.248139 1.02405 0 
0.124709 1.2125 0 
-0.25176 0.679833 0 
0.0589106 0.768326 0 
0.0765274 0.44612 0 
0.0630996 0.896046 0 
-0.00663884 0.832623 0 
0.189138 0.679182 0 
0.120377 0.83491 0 
0.107217 0.869118 0 
0.342158 0.949708 0 
0.253739 1.0386 0 
0.216008 0.874816 0 
0.172477 1.04568 0 
0.0451073 0.973237 0 
0.135975 1.0243 0 
0.0264062 1.02773 0 
0.0217514 1.34234 0 
0.347298 0.618701 0 
0.301668 0.604096 0 
0.105888 0.707371 0 
-0.122722 0.654675 0 
0.410278 0.778673 0 
0.192298 1.01207 0 
-0.0920528 0.640268 0 
0.0989282 0.985676 0 
0.201944 1.14705 0 
-0.0466154 1.11235 0 
0.0393304 0.670512 0 
-0.206994 1.02741 0 
0.0757298 0.771046 0 
0.378551 1.43161 0 
0.244571 0.963525 0 
0.249785 1.31385 0 
0.163107 0.633387 0 
-0.00610996 0.608981 0 
-0.145304 0.850005 0 
0.236299 0.63833 0 
-0.0577907 0.861545 0 
0.230789 0.889802 0 
-0.0133605 0.861639 0 
0.180315 0.602808 0 
0.346205 0.887529 0 
0.221574 1.12718 0 
0.234191 1.00609 0 
0.303769 1.38673 0 
0.505322 1.13949 0 
0.573759 1.22775 0 
0.179437 1.05945 0 
0.255451 1.14073 0 
VECTORS body_force double
0 -9.81 0 
0 -9.81 0 
0 -9.81 0 
0 -9.81 0 
0 -9.81 0 
0 -9.81 0 
0 -9.81 0 
0 -9.81 0 
0 -9.81 0 
0 -9.81 0 
0 -9.81 0 
0 -9.81 0 
0 -9.81 0 
0 -9.81 0 
0 -9.81 0 
0 -9.81 0 
0 -9.81 0 
0 -9.81 0 
0 -9.81 0 
0 -9.81 0 
0 -9.81 0 
0 -9.81 0 
0 -9.81 0 
0 -9.81 0 
0 -9.81 0 
0 -9.81 0 
0 -9.81 0 
0 -9.81 0 
0 -9.81 0 
0 -9.81 0 
0 -9.81 0 
0 -9.81 0 
0 -9.81 0 
0 -9.81 0 
0 -9.81 0 
0 -9.81 0 
0 -9.81 0 
0 -9.81 0 
0 -9.81 0 
0 -9.81 0 
0 -9.81 0 
0 -9.81 0 
0 -9.81 0 
0 -9.81 0 
0 -9.81 0 
0 -9.81 0 
0 -9.81 0 
0 -9.81 0 
0 -9.81 0 
0 -9.81 0 
0 -9.81 0 
0 -9.81 0 
0 -9.81 0 
0 -9.81 0 
0 -9.81 0 
0 -9.81 0 
0 -9.81 0 
0 -9.81 0 
0 -9.81 0 
0 -9.81 0 
0 -9.81 0 
0 -9.81 0 
0 -9.81 0 
0 -9.81 0 
TENSORS cauchy_stress double
-110.362 -373.256 0
-373.256 -709.125 0
0 0 -245.846

-1698.67 64.9585 0
64.9585 -970.911 0
0 0 -800.875

-544.223 -512.216 0
-512.216 287.433 0
0 0 -77.0371

-1999.81 -2599.82 0
-2599.82 -1618.02 0
0 0 -1085.35

1921.34 -1788.88 0
-1788.88 1117.74 0
0 0 911.724

2801.31 -1245.22 0
-1245.22 1451.73 0
0 0 1275.91

415.928 -486.999 0
-486.999 1052.45 0
0 0 440.514

1322.96 -2695.21 0
-2695.21 1165.31 0
0 0 746.481

-753.155 -813.317 0
-813.317 -1059.51 0
0 0 -543.801

642.532 -1230.8 0
-1230.8 -1200.9 0
0 0 -167.512

-1217.63 217.833 0
217.833 780.05 0
0 0 -131.274

-1811.04 774.055 0
774.055 -293.137 0
0 0 -631.255

1160.17 472.629 0
472.629 36.1156 0
0 0 358.884

236.887 479.446 0
479.446 -107.606 0
0 0 38.7846

-1715.12 1352.08 0
1352.08 3286.31 0
0 0 471.357

-2012.83 -1204.76 0
-1204.76 -2164.06 0
0 0 -1253.07

-1142.24 -2452.43 0
-2452.43 -125.313 0
0 0 -380.265

1735.95 -1432.52 0
-1432.52 -749.563 0
0 0 295.916

-6246.64 -3633.71 0
-3633.71 -7189.38 0
0 0 -4030.81

1918.11 -2105.26 0
-2105.26 2021.61 0
0 0 1181.92

-2281.18 -4043.62 0
-4043.62 -628.133 0
0 0 -872.793

-3204.79 -2596.54 0
-2596.54 -111.673 0
0 0 -994.94

-4346.8 -4503.41 0
-4503.41 -1499.44 0
0 0 -1753.87

-1547.84 -190.14 0
-190.14 -1132.26 0
0 0 -804.03

-4143.73 -1459.75 0
-1459.75 1969.31 0
0 0 -652.327

-3612.21 -2755.17 0
-2755.17 -1644.06 0
0 0 -1576.88

-1560.33 1485.57 0
1485.57 841.675 0
0 0 -215.598

-2370.09 -481.507 0
-481.507 -654.728 0
0 0 -907.444

6329.62 -377.636 0
-377.636 1497.07 0
0 0 2348.01

-8277.79 -1317.05 0
-1317.05 -5644.66 0
0 0 -4176.73

-1554.81 2013.32 0
2013.32 1462.63 0
0 0 -27.6557

-3179.08 49.4564 0
49.4564 -2267.47 0
0 0 -1633.97

-1997.39 -2766.85 0
-2766.85 -6785.81 0
0 0 -2634.96

-662.013 -2349.43 0
-2349.43 435.355 0
0 0 -67.9974

-9845.2 -8347.37 0
-8347.37 -6243.85 0
0 0 -4826.72

-13510.7 -2763.53 0
-2763.53 -8936.8 0
0 0 -6734.25

400.927 -754.728 0
-754.728 -1397.82 0
0 0 -299.069

-3934.34 -2139.32 0
-2139.32 -994.662 0
0 0 -1478.7

1111.98 -1001.43 0
-1001.43 -1453.3 0
0 0 -102.395

-5191.92 2912.16 0
2912.16 307.598 0
0 0 -1465.3

4591.86 -1958.25 0
-1958.25 71.426 0
0 0 1398.99

-4268.18 -1688.57 0
-1688.57 4133.63 0
0 0 -40.3655

-3154.3 -2795.09 0
-2795.09 -4984.07 0
0 0 -2441.51

-3899.6 -4985.73 0
-4985.73 -1939.79 0
0 0 -1751.82

-2659.65 -6963.36 0
-6963.36 364.191 0
0 0 -688.636

3305.82 732.668 0
732.668 5268.2 0
0 0 2572.2

7255.72 3751.99 0
3751.99 -3070.85 0
0 0 1255.46

1811.55 53.8687 0
53.8687 2017.69 0
0 0 1148.77

-13328.6 -3894.71 0
-3894.71 -3059.65 0
0 0 -4916.47

218.96 2033.54 0
2033.54 963.962 0
0 0 354.877

-7956.74 -6611.22 0
-6611.22 5348.2 0
0 0 -782.563

7328.18 -2564.24 0
-2564.24 -648.164 0
0 0 2004

-4816.33 -3315.64 0
-3315.64 -2788.33 0
0 0 -2281.4

8769.9 136.902 0
136.902 604.051 0
0 0 2812.18

8593.28 1798.72 0
1798.72 439.789 0
0 0 2709.92

2248.33 -99.7714 0
-99.7714 -2214.51 0
0 0 10.1463

1387.63 2724.98 0
2724.98 -3820.93 0
0 0 -729.989

5135.57 -4546.61 0
-4546.61 808.938 0
0 0 1783.35

3525.01 1961.02 0
1961.02 -4112.72 0
0 0 -176.314

1134.76 1895 0
1895 -1159.03 0
0 0 -7.28115

-377.974 1640.6 0
1640.6 609.791 0
0 0 69.5451

-1372.53 -874.629 0
-874.629 4847.52 0
0 0 1042.5

-1273.32 -879.322 0
-879.322 126.115 0
0 0 -344.161

1582.97 1869.71 0
1869.71 645.675 0
0 0 668.595

TENSORS velocity_gradient double
0.0225174 -5.63363 0
5.03459 0.276228 0
0 0 0

-1.24113 -4.94479 0
5.53619 -0.123156 0
0 0 0

0.198224 -6.10239 0
5.78058 -1.2478 0
0 0 0

-0.909109 -5.72904 0
4.97556 -0.874893 0
0 0 0

-1.36411 -6.37645 0
5.38232 0.0543508 0
0 0 0

-1.59007 -8.04212 0
5.00281 0.70035 0
0 0 0

-0.530727 -6.59109 0
4.67775 -0.196404 0
0 0 0

-0.388106 -7.57704 0
4.48376 0.487173 0
0 0 0

-1.17367 -9.23595 0
4.82261 1.217 0
0 0 0

0.0929233 -8.65326 0
2.29291 1.1421 0
0 0 0

-0.127288 -7.04594 0
4.2767 0.606907 0
0 0 0

-0.784884 -2.52883 0
3.22423 0.376526 0
0 0 0

-0.581843 -6.35842 0
2.47929 0.50822 0
0 0 0

-0.0961842 -4.35903 0
1.05902 -0.0569143 0
0 0 0

-1.20186 -2.73342 0
2.68614 0.500081 0
0 0 0

-0.0748843 -3.16864 0
2.5478 0.360272 0
0 0 0

-0.612825 -6.43443 0
5.55933 -1.33838 0
0 0 0

-0.761649 -5.69588 0
5.17864 -1.07737 0
0 0 0

-0.955218 -2.34527 0
5.35697 -0.743454 0
0 0 0

-0.454059 -2.72796 0
5.2781 -0.426161 0
0 0 0

0.224795 -4.42946 0
4.20863 -0.690914 0
0 0 0

0.311277 -3.73053 0
4.23326 -1.28365 0
0 0 0

0.554657 -3.41219 0
4.61391 -0.676855 0
0 0 0

0.660403 -3.6702 0
4.8116 -1.15919 0
0 0 0

-0.442781 -3.28369 0
3.46684 -0.710785 0
0 0 0

-0.742222 -2.6521 0
3.06142 0.144345 0
0 0 0

-1.07275 -2.77921 0
2.59919 -0.926958 0
0 0 0

-0.972422 0.341673 0
2.65302 -1.35324 0
0 0 0

-0.890485 -2.61122 0
2.65918 0.489501 0
0 0 0

-0.704813 -2.92318 0
2.80125 -1.23381 0
0 0 0

0.208075 -0.570353 0
3.86939 -2.9525 0
0 0 0

0.748018 -2.28194 0
4.54602 -5.09737 0
0 0 0

0.146374 -0.96221 0
5.20259 -0.648228 0
0 0 0

0.84438 -2.24115 0
5.1148 -0.487384 0
0 0 0

1.71101 0.350909 0
0.180523 -1.60948 0
0 0 0

1.26937 2.22373 0
4.54984 -1.98476 0
0 0 0

0.817587 -0.998558 0
4.99236 -0.601511 0
0 0 0

0.848638 2.46777 0
4.91915 -0.271903 0
0 0 0

1.11523 2.46673 0
4.24549 -1.06368 0
0 0 0

0.894019 2.48777 0
4.43437 -0.485561 0
0 0 0

0.110329 2.22012 0
3.79483 -0.0723657 0
0 0 0

0.191421 1.12605 0
3.81172 -1.12137 0
0 0 0

0.914694 2.44057 0
4.21351 0.0186812 0
0 0 0

1.32057 -3.7127 0
4.41092 -3.45891 0
0 0 0

1.37089 -0.129585 0
5.25033 -2.43659 0
0 0 0

2.34884 -3.3485 0
6.58409 -3.6654 0
0 0 0

1.80084 -6.85152 0
3.85594 -2.79256 0
0 0 0

2.20691 -6.93786 0
6.73755 -1.91971 0
0 0 0

3.16496 2.37041 0
-4.24522 -1.81412 0
0 0 0

1.03561 2.12759 0
3.69254 -2.33733 0
0 0 0

4.14843 3.20643 0
-1.58026 0.4513 0
0 0 0

0.555361 -5.8323 0
2.54711 -0.0648001 0
0 0 0

0.934844 2.20645 0
3.31141 -1.42645 0
0 0 0

0.961595 -4.85601 0
4.76506 -1.86409 0
0 0 0

1.21909 -4.29909 0
2.9606 -0.983041 0
0 0 0

1.30103 -4.74762 0
4.61702 -1.09846 0
0 0 0

1.00644 -4.96666 0
5.71095 -4.19775 0
0 0 0

2.37598 -5.40332 0
2.92096 -5.14683 0
0 0 0

1.11537 -4.90805 0
8.00808 -2.96165 0
0 0 0

1.16534 -3.18401 0
5.85175 -4.23969 0
0 0 0

2.89627 -6.51949 0
2.07516 -3.33233 0
0 0 0

1.68746 -5.27377 0
6.36271 -1.39984 0
0 0 0

2.90247 1.47675 0
0.783812 -0.426223 0
0 0 0

2.20819 2.6159 0
1.22242 0.521104 0
0 0 0

SCALARS active double 1
LOOKUP_TABLE default
1
1
1
1
1
1
1
1
1
1
1
1
1
1
1
1
1
1
1
1
1
1
1
1
1
1
1
1
1
1
1
1
1
1
1
1
1
1
1
1
1
1
1
1
1
1
1
1
1
1
1
1
1
1
1
1
1
1
1
1
1
1
1
1
SCALARS extent double 1
LOOKUP_TABLE default
0.0125
0.0125
0.0125
0.0125
0.0125
0.0125
0.0125
0.0125
0.0125
0.0125
0.0125
0.0125
0.0125
0.0125
0.0125
0.0125
0.0125
0.0125
0.0125
0.0125
0.0125
0.0125
0.0125
0.0125
0.0125
0.0125
0.0125
0.0125
0.0125
0.0125
0.0125
0.0125
0.0125
0.0125
0.0125
0.0125
0.0125
0.0125
0.0125
0.0125
0.0125
0.0125
0.0125
0.0125
0.0125
0.0125
0.0125
0.0125
0.0125
0.0125
0.0125
0.0125
0.0125
0.0125
0.0125
0.0125
0.0125
0.0125
0.0125
0.0125
0.0125
0.0125
0.0125
0.0125
SCALARS pressure double 1
LOOKUP_TABLE default
355.111
1156.82
111.276
1567.72
-1316.94
-1842.98
-636.298
-1078.25
785.49
241.962
189.618
911.812
-518.389
-56.0222
-680.849
1809.98
549.272
-427.435
5822.28
-1707.21
1260.7
1437.14
2533.37
1161.38
942.25
2277.72
311.419
1310.75
-3391.57
6033.06
39.9471
2360.17
3806.05
98.2185
6971.92
9727.25
431.988
2135.9
147.904
2116.54
-2020.76
58.3057
3526.63
2530.4
994.697
-3715.41
-1813.44
-1659.34
7101.57
-512.6
1130.37
-2894.67
3295.35
-4062.04
-3914.33
-14.6558
1054.43
-2575.95
254.675
10.5172
-100.454
-1505.83
497.121
-965.748
SCALARS density double 1
LOOKUP_TABLE default
1004.27
1013.98
1001.34
1018.99
984.321
978.127
992.394
987.144
1009.47
1002.91
1002.28
1011
993.799
999.328
991.863
1021.96
1006.61
994.884
1072.37
979.722
1015.24
1017.4
1030.87
1014.03
1011.37
1027.71
1003.74
1015.85
960.118
1075.08
1000.48
1028.73
1046.73
1001.18
1087.26
1123.81
1005.2
1025.96
1001.78
1025.72
976.043
1000.7
1043.23
1030.83
1012.01
956.394
978.474
980.285
1088.96
993.868
1013.66
965.86
1040.34
952.424
954.114
999.824
1012.73
969.561
1003.06
1000.13
998.795
982.092
1005.98
988.478
