# vtk DataFile Version 3.0
Frame: 21, Time: 0.35
ASCII
DATASET UNSTRUCTURED_GRID
POINTS 64 double
0.381443 0.0467526 0 
0.375374 0.0729104 0 
0.405076 0.04805 0 
0.399031 0.0736474 0 
0.376089 0.101288 0 
0.380979 0.127303 0 
0.400246 0.0990387 0 
0.404545 0.12339 0 
0.387207 0.153544 0 
0.392845 0.180973 0 
0.41052 0.149117 0 
0.415119 0.175109 0 
0.40213 0.208225 0 
0.410936 0.231748 0 
0.42441 0.200325 0 
0.435309 0.223859 0 
0.429331 0.0487229 0 
0.422637 0.0737327 0 
0.456588 0.0443725 0 
0.446381 0.0690464 0 
0.424964 0.0976635 0 
0.428828 0.121158 0 
0.449064 0.0915211 0 
0.452334 0.113905 0 
0.433924 0.145836 0 
0.438176 0.170082 0 
0.457122 0.138473 0 
0.463033 0.163169 0 
0.446389 0.193642 0 
0.4614 0.220376 0 
0.470403 0.188069 0 
0.483529 0.213691 0 
0.48446 0.0393998 0 
0.472095 0.0632936 0 
0.51147 0.0372706 0 
0.499519 0.0600549 0 
0.473243 0.0860436 0 
0.475855 0.108584 0 
0.499347 0.0822983 0 
0.50147 0.104083 0 
0.479396 0.132952 0 
0.485538 0.157134 0 
0.503734 0.127131 0 
0.508894 0.148644 0 
0.493635 0.181932 0 
0.505862 0.204488 0 
0.516066 0.170545 0 
0.527527 0.191501 0 
0.538705 0.0363081 0 
0.527063 0.0578819 0 
0.566254 0.039389 0 
0.556463 0.0608452 0 
0.525332 0.0787773 0 
0.526691 0.0990456 0 
0.554212 0.0802349 0 
0.554928 0.0987882 0 
0.52878 0.120298 0 
0.533452 0.14087 0 
0.556643 0.11806 0 
0.560178 0.13729 0 
0.539829 0.161815 0 
0.549804 0.181676 0 
0.565101 0.157545 0 
0.573144 0.17533 0 
CELLS 64 128
1 0
1 1
1 2
1 3
1 4
1 5
1 6
1 7
1 8
1 9
1 10
1 11
1 12
1 13
1 14
1 15
1 16
1 17
1 18
1 19
1 20
1 21
1 22
1 23
1 24
1 25
1 26
1 27
1 28
1 29
1 30
1 31
1 32
1 33
1 34
1 35
1 36
1 37
1 38
1 39
1 40
1 41
1 42
1 43
1 44
1 45
1 46
1 47
1 48
1 49
1 50
1 51
1 52
1 53
1 54
1 55
1 56
1 57
1 58
1 59
1 60
1 61
1 62
1 63
CELL_TYPES 64
1
1
1
1
1
1
1
1
1
1
1
1
1
1
1
1
1
1
1
1
1
1
1
1
1
1
1
1
1
1
1
1
1
1
1
1
1
1
1
1
1
1
1
1
1
1
1
1
1
1
1
1
1
1
1
1
1
1
1
1
1
1
1
1
POINT_DATA 64
VECTORS displacement double
-0.0310568 -0.365747 0 
-0.0371261 -0.36459 0 
-0.0324239 -0.36445 0 
-0.0384689 -0.363853 0 
-0.0364112 -0.361212 0 
-0.0315206 -0.360197 0 
-0.0372537 -0.363461 0 
-0.0329552 -0.36411 0 
-0.0252928 -0.358956 0 
-0.019655 -0.356527 0 
-0.0269799 -0.363383 0 
-0.0223813 -0.362391 0 
-0.0103701 -0.354275 0 
-0.00156447 -0.355752 0 
-0.0130903 -0.362175 0 
-0.00219114 -0.363641 0 
-0.0331685 -0.363777 0 
-0.0398632 -0.363767 0 
-0.0309125 -0.368127 0 
-0.0411189 -0.368454 0 
-0.0375361 -0.364837 0 
-0.0336721 -0.366342 0 
-0.0384361 -0.370979 0 
-0.0351665 -0.373595 0 
-0.0285757 -0.366664 0 
-0.0243244 -0.367418 0 
-0.0303783 -0.374027 0 
-0.0244674 -0.374331 0 
-0.0161113 -0.368858 0 
-0.00110048 -0.367124 0 
-0.0170968 -0.374431 0 
-0.00397068 -0.373809 0 
-0.0280401 -0.3731 0 
-0.0404046 -0.374206 0 
-0.0260304 -0.375229 0 
-0.0379812 -0.377445 0 
-0.0392574 -0.376456 0 
-0.036645 -0.378916 0 
-0.038153 -0.380202 0 
-0.0360297 -0.383417 0 
-0.0331045 -0.379548 0 
-0.0269622 -0.380366 0 
-0.0337655 -0.385369 0 
-0.0286055 -0.388856 0 
-0.0188651 -0.380568 0 
-0.00663791 -0.383012 0 
-0.0214343 -0.391955 0 
-0.00997296 -0.395999 0 
-0.0237949 -0.376192 0 
-0.0354365 -0.379618 0 
-0.0212463 -0.373111 0 
-0.0310373 -0.376655 0 
-0.0371679 -0.383723 0 
-0.0358086 -0.388454 0 
-0.0332882 -0.382265 0 
-0.032572 -0.388712 0 
-0.0337199 -0.392202 0 
-0.029048 -0.39663 0 
-0.0308567 -0.39444 0 
-0.0273215 -0.40021 0 
-0.0226715 -0.400685 0 
-0.0126959 -0.405824 0 
-0.0223993 -0.404955 0 
-0.0143556 -0.41217 0 
VECTORS velocity double
-0.51715 -0.667404 0 
-0.29397 0.316928 0 
-0.668358 0.0218468 0 
-0.710253 0.837343 0 
-0.536202 1.08147 0 
-0.850152 1.13204 0 
-0.744111 0.416304 0 
-0.808897 0.214448 0 
-0.349188 1.05999 0 
-0.154759 0.720957 0 
-0.478881 0.474311 0 
-0.429408 0.323811 0 
-0.77122 0.711382 0 
-1.76705 0.644863 0 
-1.03814 0.0303026 0 
-2.01077 0.166978 0 
-0.785427 0.656293 0 
-1.04903 1.03584 0 
-0.656827 0.813242 0 
-1.12293 1.51229 0 
-0.694686 0.304667 0 
-0.316717 0.144235 0 
-0.749788 0.676085 0 
-0.334455 0.244563 0 
-0.106479 0.453125 0 
-0.203997 0.39933 0 
-0.269826 0.513128 0 
-0.386717 0.819617 0 
-0.938204 0.279345 0 
-1.13265 1.34633 0 
-0.724787 1.68959 0 
-0.862608 2.08109 0 
-0.683575 0.747211 0 
-1.00757 1.7676 0 
-0.975132 0.325469 0 
-1.36774 1.57639 0 
-0.589835 1.34773 0 
0.0328531 1.16869 0 
-0.874866 1.43678 0 
-0.073148 1.53502 0 
-0.210875 1.34655 0 
-0.864596 1.41502 0 
-0.128991 1.82943 0 
-0.67763 1.67505 0 
-1.2995 1.95274 0 
-0.468863 2.48514 0 
-1.14121 1.6819 0 
0.0314852 2.32692 0 
-1.0746 0.00607506 0 
-1.80011 1.13504 0 
-1.66844 0.763762 0 
-2.31467 1.695 0 
-1.53525 1.15939 0 
-0.752597 1.37333 0 
-1.82754 1.68567 0 
-0.725672 1.42613 0 
-0.370069 1.65477 0 
-0.566564 1.7576 0 
-0.196778 1.01189 0 
-0.524393 0.994445 0 
-0.754563 1.90263 0 
0.340944 2.01056 0 
-0.948269 1.60165 0 
0.364153 1.25941 0 
SCALARS mass double 1
LOOKUP_TABLE default
0.625
0.625
0.625
0.625
0.625
0.625
0.625
0.625
0.625
0.625
0.625
0.625
0.625
0.625
0.625
0.625
0.625
0.625
0.625
0.625
0.625
0.625
0.625
0.625
0.625
0.625
0.625
0.625
0.625
0.625
0.625
0.625
0.625
0.625
0.625
0.625
0.625
0.625
0.625
0.625
0.625
0.625
0.625
0.625
0.625
0.625
0.625
0.625
0.625
0.625
0.625
0.625
0.625
0.625
0.625
0.625
0.625
0.625
0.625
0.625
0.625
0.625
0.625
0.625
SCALARS volume double 1
LOOKUP_TABLE default
0.000575769
0.000678477
0.000579854
0.00063174
0.00068047
0.000655837
0.000614191
0.00061306
0.000649448
0.000663262
0.000623346
0.000602539
0.000667787
0.000586108
0.000614853
0.000628172
0.000594653
0.000638515
0.000567918
0.000608973
0.000602629
0.000642412
0.000527008
0.000570444
0.000660518
0.000599501
0.000585452
0.000612064
0.000680884
0.000663208
0.000672463
0.000627239
0.000538648
0.000667364
0.000490504
0.000638879
0.000580094
0.000619208
0.000540273
0.000560074
0.000615519
0.00059246
0.000580751
0.00056465
0.000649365
0.00057882
0.000616785
0.000574697
0.000525053
0.000681034
0.000562875
0.000632895
0.000549951
0.000562325
0.000512625
0.000535858
0.000572233
0.000550198
0.000543074
0.000542167
0.000583944
0.000492853
0.000554917
0.000386722
VECTORS momentum double
-0.323219 -0.417127 0 
-0.183731 0.19808 0 
-0.417724 0.0136543 0 
-0.443908 0.523339 0 
-0.335126 0.675917 0 
-0.531345 0.707527 0 
-0.46507 0.26019 0 
-0.50556 0.13403 0 
-0.218242 0.662496 0 
-0.0967243 0.450598 0 
-0.2993 0.296445 0 
-0.26838 0.202382 0 
-0.482013 0.444614 0 
-1.1044 0.403039 0 
-0.648838 0.0189391 0 
-1.25673 0.104361 0 
-0.490892 0.410183 0 
-0.655643 0.6474 0 
-0.410517 0.508276 0 
-0.701829 0.945184 0 
-0.434179 0.190417 0 
-0.197948 0.0901468 0 
-0.468618 0.422553 0 
-0.209034 0.152852 0 
-0.0665494 0.283203 0 
-0.127498 0.249581 0 
-0.168641 0.320705 0 
-0.241698 0.512261 0 
-0.586378 0.17459 0 
-0.707904 0.841457 0 
-0.452992 1.05599 0 
-0.53913 1.30068 0 
-0.427235 0.467007 0 
-0.629731 1.10475 0 
-0.609458 0.203418 0 
-0.854835 0.985242 0 
-0.368647 0.84233 0 
0.0205332 0.730434 0 
-0.546791 0.897985 0 
-0.0457175 0.959386 0 
-0.131797 0.841595 0 
-0.540372 0.884385 0 
-0.0806195 1.1434 0 
-0.423519 1.0469 0 
-0.812189 1.22046 0 
-0.293039 1.55321 0 
-0.713255 1.05118 0 
0.0196782 1.45433 0 
-0.671627 0.00379691 0 
-1.12507 0.709402 0 
-1.04277 0.477351 0 
-1.44667 1.05938 0 
-0.959531 0.724617 0 
-0.470373 0.858334 0 
-1.14221 1.05354 0 
-0.453545 0.891331 0 
-0.231293 1.03423 0 
-0.354102 1.0985 0 
-0.122986 0.632432 0 
-0.327745 0.621528 0 
-0.471602 1.18914 0 
0.21309 1.2566 0 
-0.592668 1.00103 0 
0.227596 0.787129 0 
VECTORS body_force double
0 -9.81 0 
0 -9.81 0 
0 -9.81 0 
0 -9.81 0 
0 -9.81 0 
0 -9.81 0 
0 -9.81 0 
0 -9.81 0 
0 -9.81 0 
0 -9.81 0 
0 -9.81 0 
0 -9.81 0 
0 -9.81 0 
0 -9.81 0 
0 -9.81 0 
0 -9.81 0 
0 -9.81 0 
0 -9.81 0 
0 -9.81 0 
0 -9.81 0 
0 -9.81 0 
0 -9.81 0 
0 -9.81 0 
0 -9.81 0 
0 -9.81 0 
0 -9.81 0 
0 -9.81 0 
0 -9.81 0 
0 -9.81 0 
0 -9.81 0 
0 -9.81 0 
0 -9.81 0 
0 -9.81 0 
0 -9.81 0 
0 -9.81 0 
0 -9.81 0 
0 -9.81 0 
0 -9.81 0 
0 -9.81 0 
0 -9.81 0 
0 -9.81 0 
0 -9.81 0 
0 -9.81 0 
0 -9.81 0 
0 -9.81 0 
0 -9.81 0 
0 -9.81 0 
0 -9.81 0 
0 -9.81 0 
0 -9.81 0 
0 -9.81 0 
0 -9.81 0 
0 -9.81 0 
0 -9.81 0 
0 -9.81 0 
0 -9.81 0 
0 -9.81 0 
0 -9.81 0 
0 -9.81 0 
0 -9.81 0 
0 -9.81 0 
0 -9.81 0 
0 -9.81 0 
0 -9.81 0 
TENSORS cauchy_stress double
-1923.07 -14228.7 0
-14228.7 -13854.9 0
0 0 -4733.38

3173.95 2637.06 0
2637.06 12614.4 0
0 0 4736.51

704.838 -17437.6 0
-17437.6 -15123 0
0 0 -4325.45

-2568.47 -1406.62 0
-1406.62 4631.21 0
0 0 618.823

2970.76 3318.04 0
3318.04 13381.7 0
0 0 4905.73

962.679 3563.43 0
3563.43 8299.1 0
0 0 2778.53

-1581.64 2252.27 0
2252.27 -1773.14 0
0 0 -1006.44

-2799.96 4992.31 0
4992.31 -909.329 0
0 0 -1112.79

762.892 2237.43 0
2237.43 6616.09 0
0 0 2213.69

-1842.69 4047.29 0
4047.29 13269.3 0
0 0 3427.98

-4151.78 6384.38 0
6384.38 3642.25 0
0 0 -152.858

-8050.44 2601.97 0
2601.97 1012.26 0
0 0 -2111.46

3139.28 2489.18 0
2489.18 9594.79 0
0 0 3820.22

-3435.08 -2216.66 0
-2216.66 -8920.08 0
0 0 -3706.55

-3415.04 8156.12 0
8156.12 267.164 0
0 0 -944.364

5025.85 2061.76 0
2061.76 -4052.17 0
0 0 292.104

7346.79 -22408.1 0
-22408.1 -16918.6 0
0 0 -2871.55

-310.593 -1764.57 0
-1764.57 4424.66 0
0 0 1234.22

5859.36 -28356.6 0
-28356.6 -24277.7 0
0 0 -5525.5

-4561.84 -6625.57 0
-6625.57 -433.726 0
0 0 -1498.67

1528.74 535.983 0
535.983 -8538.5 0
0 0 -2102.93

5647.55 813.71 0
813.71 -363.308 0
0 0 1585.27

-12877.2 -5055.03 0
-5055.03 -19918.3 0
0 0 -9838.66

-10874.1 -4040.95 0
-4040.95 -6690.46 0
0 0 -5269.38

5673.52 3305.77 0
3305.77 4955.77 0
0 0 3188.79

-878.018 -6380.18 0
-6380.18 -7132.37 0
0 0 -2403.12

-10718.4 792.357 0
792.357 -1852.32 0
0 0 -3771.2

-4383.32 -2454.25 0
-2454.25 361.259 0
0 0 -1206.62

9882.64 10052.7 0
10052.7 6586.72 0
0 0 4940.81

6970.45 11855.4 0
11855.4 4440.59 0
0 0 3423.31

6376.86 8053.51 0
8053.51 7699.18 0
0 0 4222.81

464.034 10404.1 0
10404.1 223.783 0
0 0 206.345

4102.57 -19101.3 0
-19101.3 -32696.8 0
0 0 -8578.26

9433.06 -9799.34 0
-9799.34 3179.27 0
0 0 3783.7

-5328.73 -16538.8 0
-16538.8 -41271.1 0
0 0 -13979.9

6198.87 -12596.9 0
-12596.9 -1974.99 0
0 0 1267.16

-88.7291 -409.642 0
-409.642 -14250 0
0 0 -4301.61

2830.73 38.6463 0
38.6463 -4621.28 0
0 0 -537.164

-8558.02 -4974.22 0
-4974.22 -19456.8 0
0 0 -8404.46

-9417.56 -9265.9 0
-9265.9 -11675.1 0
0 0 -6327.8

-1145.3 6328.09 0
6328.09 -1794.21 0
0 0 -881.854

-5723.48 6341.66 0
6341.66 -4559.04 0
0 0 -3084.76

-7793.44 -8985.63 0
-8985.63 -6327.6 0
0 0 -4236.31

-9222.36 -10135.6 0
-10135.6 -10305.8 0
0 0 -5858.45

2460.62 7166.6 0
7166.6 4893.77 0
0 0 2206.32

-1799.54 -3619.94 0
-3619.94 -12961.9 0
0 0 -4428.42

-4264.15 -6068.44 0
-6068.44 1719.74 0
0 0 -763.323

-4429.23 -178.67 0
-178.67 -11707.2 0
0 0 -4840.93

825.956 -7177.68 0
-7177.68 -34336.2 0
0 0 -10053.1

18072.6 -8396.63 0
-8396.63 -1561.03 0
0 0 4953.47

2877.29 -3803.57 0
-3803.57 -23010.8 0
0 0 -6040.06

13383.4 -2324.18 0
-2324.18 -10969.3 0
0 0 724.204

219.368 -609.136 0
-609.136 -24820 0
0 0 -7380.19

-1278.02 -1978.66 0
-1978.66 -19043.6 0
0 0 -6096.48

-3643.19 6109.85 0
6109.85 -34473.6 0
0 0 -11435

-172.846 4209.09 0
4209.09 -29419.8 0
0 0 -8877.81

-555.292 -1458.07 0
-1458.07 -16407.2 0
0 0 -5088.76

-2947.32 67.8728 0
67.8728 -21566.6 0
0 0 -7354.19

364.07 1647.87 0
1647.87 -27384.6 0
0 0 -8106.15

-2550.55 -786.616 0
-786.616 -24791.4 0
0 0 -8202.59

594.274 3648.62 0
3648.62 -13660.8 0
0 0 -3919.96

-8286.5 5428.3 0
5428.3 -37394.3 0
0 0 -13704.2

-4977.52 56.1933 0
56.1933 -17894.3 0
0 0 -6861.55

-27109.3 -1917.32 0
-1917.32 -65207.4 0
0 0 -27695

TENSORS velocity_gradient double
-4.7769 -9.06031 0
5.66828 4.59289 0
0 0 0

-4.34563 -1.20293 0
0.358761 12.928 0
0 0 0

-2.2306 -9.17011 0
13.0175 6.20688 0
0 0 0

-2.291 0.0478941 0
4.86967 6.42058 0
0 0 0

-2.88674 0.329549 0
-6.76024 7.01455 0
0 0 0

-0.373388 2.07342 0
-8.65285 2.05696 0
0 0 0

0.0340341 1.45329 0
0.10856 4.22423 0
0 0 0

2.02565 3.7927 0
1.88081 0.866704 0
0 0 0

1.02011 -2.06978 0
-9.62487 -1.87475 0
0 0 0

-3.63601 -4.95088 0
-9.39515 -3.17974 0
0 0 0

1.61789 -0.320049 0
1.72212 -0.455486 0
0 0 0

-0.0431123 -7.28896 0
3.60952 -1.59122 0
0 0 0

-3.87805 -16.1282 0
3.26484 0.649624 0
0 0 0

-2.13246 -16.6584 0
7.5522 1.70075 0
0 0 0

-1.64999 -12.1586 0
5.88299 0.751729 0
0 0 0

-2.06121 -16.8734 0
7.16516 2.86868 0
0 0 0

-2.10231 -8.69874 0
13.3737 9.0961 0
0 0 0

-0.0696526 2.37151 0
10.0929 1.1108 0
0 0 0

-5.75221 -16.9237 0
3.27777 20.6653 0
0 0 0

-1.49646 4.98047 0
10.0042 -3.37125 0
0 0 0

2.27709 2.82076 0
5.19489 0.365373 0
0 0 0

2.35431 3.32689 0
3.05217 -0.598061 0
0 0 0

0.638278 5.30552 0
8.35487 -3.43102 0
0 0 0

0.413449 2.53847 0
10.9648 -1.21165 0
0 0 0

1.77287 1.87287 0
1.66373 -0.778107 0
0 0 0

0.320207 -8.9262 0
3.1198 0.615614 0
0 0 0

-2.36934 2.25517 0
16.6673 -0.95791 0
0 0 0

-2.10254 -8.31354 0
19.1421 2.82124 0
0 0 0

-0.678604 -9.22455 0
9.86275 1.40199 0
0 0 0

4.26208 -15.4077 0
22.0506 3.36419 0
0 0 0

0.464415 -7.52565 0
21.1921 3.45044 0
0 0 0

3.35985 -12.6372 0
22.1366 3.10006 0
0 0 0

-5.09705 -20.6193 0
2.90444 22.7711 0
0 0 0

-4.83222 8.57739 0
5.83312 -0.76416 0
0 0 0

-7.02657 -24.9576 0
-2.93606 22.8854 0
0 0 0

-7.42598 12.2882 0
0.756665 3.71464 0
0 0 0

-1.50825 8.71665 0
9.6787 -0.603047 0
0 0 0

0.0798358 0.728686 0
13.1025 1.26394 0
0 0 0

-5.1182 12.2442 0
4.17796 3.65147 0
0 0 0

-4.20054 3.31568 0
5.0951 3.75652 0
0 0 0

-1.8917 0.442098 0
15.9721 1.68107 0
0 0 0

-2.72787 -5.74441 0
18.599 4.60484 0
0 0 0

-2.37569 -0.18346 0
3.2024 3.79197 0
0 0 0

1.31078 -0.25701 0
0.523308 4.53675 0
0 0 0

0.202489 -5.07464 0
19.8126 5.37616 0
0 0 0

14.2155 -7.28767 0
5.66998 5.55506 0
0 0 0

6.19258 -0.581502 0
1.77402 7.18389 0
0 0 0

11.1211 2.11137 0
3.44419 8.09646 0
0 0 0

-6.85992 -30.2419 0
-2.86642 20.6774 0
0 0 0

-9.29532 13.9865 0
-3.25903 7.04239 0
0 0 0

-9.7642 -36.6864 0
3.50563 21.4602 0
0 0 0

-10.5428 16.8371 0
1.16755 6.73275 0
0 0 0

-8.22992 13.8818 0
-0.893961 6.81004 0
0 0 0

-6.95348 10.7349 0
1.12501 5.79981 0
0 0 0

-6.4813 16.343 0
-5.18284 7.43934 0
0 0 0

-2.74728 13.953 0
-10.7507 6.09894 0
0 0 0

-3.76474 3.98767 0
1.14038 3.22735 0
0 0 0

-0.155568 4.79578 0
0.56215 3.09788 0
0 0 0

-0.431358 8.21818 0
-11.8192 3.07132 0
0 0 0

1.14956 8.49585 0
-10.7138 3.26547 0
0 0 0

4.12957 5.03342 0
1.0749 9.08669 0
0 0 0

6.5873 6.83328 0
-3.26319 9.71119 0
0 0 0

2.74028 8.44551 0
-9.7297 10.1949 0
0 0 0

3.99136 8.99375 0
-9.22164 10.5363 0
0 0 0

SCALARS active double 1
LOOKUP_TABLE default
1
1
1
1
1
1
1
1
1
1
1
1
1
1
1
1
1
1
1
1
1
1
1
1
1
1
1
1
1
1
1
1
1
1
1
1
1
1
1
1
1
1
1
1
1
1
1
1
1
1
1
1
1
1
1
1
1
1
1
1
1
1
1
1
SCALARS extent double 1
LOOKUP_TABLE default
0.0125
0.0125
0.0125
0.0125
0.0125
0.0125
0.0125
0.0125
0.0125
0.0125
0.0125
0.0125
0.0125
0.0125
0.0125
0.0125
0.0125
0.0125
0.0125
0.0125
0.0125
0.0125
0.0125
0.0125
0.0125
0.0125
0.0125
0.0125
0.0125
0.0125
0.0125
0.0125
0.0125
0.0125
0.0125
0.0125
0.0125
0.0125
0.0125
0.0125
0.0125
0.0125
0.0125
0.0125
0.0125
0.0125
0.0125
0.0125
0.0125
0.0125
0.0125
0.0125
0.0125
0.0125
0.0125
0.0125
0.0125
0.0125
0.0125
0.0125
0.0125
0.0125
0.0125
0.0125
SCALARS pressure double 1
LOOKUP_TABLE default
6837.1
-6841.62
6247.87
-893.856
-7086.06
-4013.44
1453.74
1607.36
-3197.56
-4951.52
220.795
3049.88
-5518.1
5353.91
1364.08
-421.928
4147.79
-1782.76
7981.28
2164.75
3037.56
-2289.84
14211.4
7611.32
-4606.03
3471.17
5447.3
1742.89
-7136.72
-4944.79
-6099.61
-298.054
12390.8
-5465.34
20193.3
-1830.35
6213.44
775.903
12139.8
9140.15
1273.79
4455.76
6119.12
8462.2
-3186.9
6396.61
1102.58
6992.45
14521.1
-7155.01
8724.53
-1046.07
10660.3
8806.02
16517.3
12823.5
7350.43
10622.7
11708.9
11848.2
5662.17
19795
9911.12
40003.9
SCALARS density double 1
LOOKUP_TABLE default
1085.5
921.18
1077.86
989.331
918.482
952.98
1017.6
1019.48
962.356
942.313
1002.65
1037.28
935.928
1066.36
1016.5
994.95
1051.03
978.834
1100.51
1026.32
1037.12
972.896
1185.94
1095.64
946.227
1042.53
1067.55
1021.13
917.924
942.389
929.419
996.43
1160.31
936.52
1274.2
978.275
1077.41
1009.35
1156.82
1115.92
1015.4
1054.92
1076.19
1106.88
962.479
1079.78
1013.32
1087.53
1190.36
917.723
1110.37
987.526
1136.47
1111.46
1219.22
1166.35
1092.21
1135.95
1150.86
1152.78
1070.31
1268.13
1126.29
1616.15
