# vtk DataFile Version 3.0
Frame: 43, Time: 0.717
ASCII
DATASET UNSTRUCTURED_GRID
POINTS 64 double
0.405204 0.107113 0 
0.380364 0.104386 0 
0.399754 0.132475 0 
0.374345 0.128026 0 
0.354424 0.0985986 0 
0.327105 0.0940925 0 
0.351052 0.121917 0 
0.325118 0.118098 0 
0.302747 0.0902364 0 
0.278964 0.0830491 0 
0.300376 0.115016 0 
0.276398 0.108197 0 
0.252802 0.0823571 0 
0.22986 0.0781146 0 
0.249947 0.106758 0 
0.226768 0.102793 0 
0.393072 0.156744 0 
0.36846 0.150846 0 
0.391636 0.18065 0 
0.366603 0.174863 0 
0.346279 0.145894 0 
0.32219 0.143209 0 
0.343818 0.171437 0 
0.31992 0.168108 0 
0.297327 0.137939 0 
0.274012 0.131191 0 
0.294618 0.162179 0 
0.269711 0.157527 0 
0.248545 0.131339 0 
0.222538 0.131021 0 
0.245134 0.156891 0 
0.220894 0.156097 0 
0.388572 0.20554 0 
0.365033 0.198973 0 
0.385356 0.230514 0 
0.36154 0.224858 0 
0.342172 0.195696 0 
0.317928 0.192796 0 
0.339466 0.221479 0 
0.31501 0.218756 0 
0.293115 0.186738 0 
0.268795 0.182902 0 
0.290247 0.211163 0 
0.266894 0.209342 0 
0.244175 0.181301 0 
0.219559 0.180286 0 
0.241467 0.208228 0 
0.215278 0.205912 0 
0.383077 0.255199 0 
0.35772 0.249553 0 
0.376142 0.279087 0 
0.351767 0.275108 0 
0.334365 0.247873 0 
0.309869 0.242661 0 
0.327946 0.273642 0 
0.303699 0.26721 0 
0.28551 0.235647 0 
0.262171 0.235179 0 
0.279974 0.262533 0 
0.257195 0.261043 0 
0.238293 0.232539 0 
0.212573 0.229825 0 
0.23426 0.256356 0 
0.209562 0.255178 0 
CELLS 64 128
1 0
1 1
1 2
1 3
1 4
1 5
1 6
1 7
1 8
1 9
1 10
1 11
1 12
1 13
1 14
1 15
1 16
1 17
1 18
1 19
1 20
1 21
1 22
1 23
1 24
1 25
1 26
1 27
1 28
1 29
1 30
1 31
1 32
1 33
1 34
1 35
1 36
1 37
1 38
1 39
1 40
1 41
1 42
1 43
1 44
1 45
1 46
1 47
1 48
1 49
1 50
1 51
1 52
1 53
1 54
1 55
1 56
1 57
1 58
1 59
1 60
1 61
1 62
1 63
CELL_TYPES 64
1
1
1
1
1
1
1
1
1
1
1
1
1
1
1
1
1
1
1
1
1
1
1
1
1
1
1
1
1
1
1
1
1
1
1
1
1
1
1
1
1
1
1
1
1
1
1
1
1
1
1
1
1
1
1
1
1
1
1
1
1
1
1
1
POINT_DATA 64
VECTORS displacement double
-0.0072959 -0.305387 0 
-0.0321362 -0.333114 0 
-0.0377457 -0.280025 0 
-0.0631548 -0.309474 0 
-0.0580764 -0.363901 0 
-0.0853945 -0.393408 0 
-0.0864484 -0.340583 0 
-0.112382 -0.369402 0 
-0.109753 -0.422264 0 
-0.133536 -0.454451 0 
-0.137124 -0.397484 0 
-0.161102 -0.429303 0 
-0.159698 -0.480143 0 
-0.18264 -0.509385 0 
-0.187553 -0.455742 0 
-0.210732 -0.484707 0 
-0.0694285 -0.255756 0 
-0.0940401 -0.286654 0 
-0.0958638 -0.23185 0 
-0.120897 -0.262637 0 
-0.116221 -0.316606 0 
-0.14031 -0.344291 0 
-0.143682 -0.291063 0 
-0.16758 -0.319392 0 
-0.165173 -0.374561 0 
-0.188488 -0.406309 0 
-0.192882 -0.350321 0 
-0.217789 -0.379973 0 
-0.213955 -0.431161 0 
-0.239962 -0.456479 0 
-0.242366 -0.405609 0 
-0.266606 -0.431403 0 
-0.123928 -0.20696 0 
-0.147467 -0.238527 0 
-0.152144 -0.181986 0 
-0.17596 -0.212642 0 
-0.170328 -0.266804 0 
-0.194572 -0.294704 0 
-0.198034 -0.241021 0 
-0.22249 -0.268744 0 
-0.219385 -0.325762 0 
-0.243705 -0.354598 0 
-0.247253 -0.301337 0 
-0.270606 -0.328158 0 
-0.268325 -0.381199 0 
-0.292941 -0.407214 0 
-0.296033 -0.354272 0 
-0.322222 -0.381588 0 
-0.179423 -0.157301 0 
-0.20478 -0.187947 0 
-0.211358 -0.133413 0 
-0.235733 -0.162392 0 
-0.228135 -0.214627 0 
-0.252631 -0.244839 0 
-0.259554 -0.188858 0 
-0.283801 -0.22029 0 
-0.27699 -0.276853 0 
-0.300329 -0.302321 0 
-0.307526 -0.249967 0 
-0.330305 -0.276457 0 
-0.324207 -0.329961 0 
-0.349927 -0.357675 0 
-0.35324 -0.306144 0 
-0.377938 -0.332322 0 
VECTORS velocity double
-0.548523 0.768283 0 
-0.672719 0.94098 0 
-0.646653 1.15309 0 
-0.651029 0.895978 0 
0.152303 0.546486 0 
-1.12306 0.754279 0 
-0.375315 0.148025 0 
-0.987174 0.667662 0 
-0.22639 0.42484 0 
-0.598361 0.528465 0 
0.172776 0.728931 0 
-0.337045 0.718255 0 
-0.819547 0.743292 0 
-0.553359 0.256857 0 
-0.484713 0.888293 0 
-0.400658 0.695813 0 
-0.337729 0.83907 0 
-0.563896 0.595899 0 
-0.664421 0.846362 0 
-0.69297 0.362634 0 
-0.189691 0.510245 0 
-0.336125 0.765463 0 
-0.292313 0.70838 0 
-0.617557 0.857762 0 
-0.0169535 0.413961 0 
-0.240135 -0.0313057 0 
-0.537692 0.701925 0 
-0.617881 0.582818 0 
-0.238426 0.305247 0 
0.139015 0.600854 0 
-0.136613 1.00422 0 
-0.332062 0.561623 0 
-0.700989 0.620557 0 
-0.704319 0.428922 0 
-0.718438 0.424101 0 
-0.759783 0.834544 0 
-0.335883 0.653277 0 
-0.430454 0.57266 0 
-1.01338 0.509608 0 
-1.2787 0.388758 0 
-0.227438 0.503556 0 
-0.327004 0.482141 0 
-0.856946 0.535969 0 
-0.947982 0.43099 0 
-0.306188 0.201927 0 
-0.452756 0.0986407 0 
-0.630837 0.764996 0 
-0.384082 0.75898 0 
-0.740784 0.951485 0 
-0.854011 0.709724 0 
-1.22052 0.468988 0 
-1.22042 0.231479 0 
-0.782636 0.183363 0 
-0.635698 0.615254 0 
-1.08543 0.2837 0 
-0.985209 0.56027 0 
-0.348966 0.609156 0 
-0.423288 0.12139 0 
-1.16356 0.403306 0 
-0.82635 0.730044 0 
-0.0152397 0.429086 0 
-0.739145 0.365984 0 
-0.805924 0.469698 0 
-0.447492 0.796281 0 
SCALARS mass double 1
LOOKUP_TABLE default
0.625
0.625
0.625
0.625
0.625
0.625
0.625
0.625
0.625
0.625
0.625
0.625
0.625
0.625
0.625
0.625
0.625
0.625
0.625
0.625
0.625
0.625
0.625
0.625
0.625
0.625
0.625
0.625
0.625
0.625
0.625
0.625
0.625
0.625
0.625
0.625
0.625
0.625
0.625
0.625
0.625
0.625
0.625
0.625
0.625
0.625
0.625
0.625
0.625
0.625
0.625
0.625
0.625
0.625
0.625
0.625
0.625
0.625
0.625
0.625
0.625
0.625
0.625
0.625
SCALARS volume double 1
LOOKUP_TABLE default
0.000638718
0.000609454
0.000631901
0.00061062
0.000638736
0.000664422
0.000605068
0.000627787
0.000607345
0.000616286
0.000584003
0.000599235
0.000636801
0.0006242
0.000607608
0.000637612
0.000625535
0.000599466
0.00063331
0.000648046
0.000606613
0.000651429
0.000595345
0.000601051
0.00063432
0.000615651
0.000606348
0.000609881
0.000653483
0.000631271
0.000587877
0.000632569
0.000605865
0.000605286
0.000630223
0.000592602
0.000632283
0.000620107
0.00062158
0.000592307
0.0006504
0.000630779
0.000630403
0.000612954
0.00060815
0.000631933
0.000645011
0.000613987
0.000643773
0.000652826
0.000615712
0.000617918
0.000624348
0.000609691
0.000611383
0.00061121
0.000616805
0.000593861
0.000602088
0.000591487
0.000602157
0.000604704
0.000623154
0.000609896
VECTORS momentum double
-0.342827 0.480177 0 
-0.42045 0.588113 0 
-0.404158 0.72068 0 
-0.406893 0.559987 0 
0.0951893 0.341554 0 
-0.701911 0.471425 0 
-0.234572 0.0925153 0 
-0.616984 0.417289 0 
-0.141494 0.265525 0 
-0.373976 0.330291 0 
0.107985 0.455582 0 
-0.210653 0.44891 0 
-0.512217 0.464557 0 
-0.345849 0.160536 0 
-0.302946 0.555183 0 
-0.250411 0.434883 0 
-0.21108 0.524419 0 
-0.352435 0.372437 0 
-0.415263 0.528977 0 
-0.433106 0.226646 0 
-0.118557 0.318903 0 
-0.210078 0.478414 0 
-0.182696 0.442738 0 
-0.385973 0.536101 0 
-0.0105959 0.258726 0 
-0.150084 -0.019566 0 
-0.336058 0.438703 0 
-0.386176 0.364261 0 
-0.149016 0.190779 0 
0.0868844 0.375534 0 
-0.0853832 0.627636 0 
-0.207539 0.351014 0 
-0.438118 0.387848 0 
-0.440199 0.268076 0 
-0.449024 0.265063 0 
-0.474865 0.52159 0 
-0.209927 0.408298 0 
-0.269034 0.357913 0 
-0.633362 0.318505 0 
-0.799185 0.242974 0 
-0.142148 0.314723 0 
-0.204377 0.301338 0 
-0.535591 0.334981 0 
-0.592489 0.269369 0 
-0.191367 0.126204 0 
-0.282972 0.0616504 0 
-0.394273 0.478123 0 
-0.240051 0.474362 0 
-0.46299 0.594678 0 
-0.533757 0.443578 0 
-0.762823 0.293118 0 
-0.762761 0.144675 0 
-0.489147 0.114602 0 
-0.397311 0.384534 0 
-0.678396 0.177313 0 
-0.615755 0.350169 0 
-0.218104 0.380723 0 
-0.264555 0.0758687 0 
-0.727226 0.252066 0 
-0.516468 0.456278 0 
-0.0095248 0.268178 0 
-0.461966 0.22874 0 
-0.503703 0.293561 0 
-0.279682 0.497676 0 
VECTORS body_force double
0 -9.81 0 
0 -9.81 0 
0 -9.81 0 
0 -9.81 0 
0 -9.81 0 
0 -9.81 0 
0 -9.81 0 
0 -9.81 0 
0 -9.81 0 
0 -9.81 0 
0 -9.81 0 
0 -9.81 0 
0 -9.81 0 
0 -9.81 0 
0 -9.81 0 
0 -9.81 0 
0 -9.81 0 
0 -9.81 0 
0 -9.81 0 
0 -9.81 0 
0 -9.81 0 
0 -9.81 0 
0 -9.81 0 
0 -9.81 0 
0 -9.81 0 
0 -9.81 0 
0 -9.81 0 
0 -9.81 0 
0 -9.81 0 
0 -9.81 0 
0 -9.81 0 
0 -9.81 0 
0 -9.81 0 
0 -9.81 0 
0 -9.81 0 
0 -9.81 0 
0 -9.81 0 
0 -9.81 0 
0 -9.81 0 
0 -9.81 0 
0 -9.81 0 
0 -9.81 0 
0 -9.81 0 
0 -9.81 0 
0 -9.81 0 
0 -9.81 0 
0 -9.81 0 
0 -9.81 0 
0 -9.81 0 
0 -9.81 0 
0 -9.81 0 
0 -9.81 0 
0 -9.81 0 
0 -9.81 0 
0 -9.81 0 
0 -9.81 0 
0 -9.81 0 
0 -9.81 0 
0 -9.81 0 
0 -9.81 0 
0 -9.81 0 
0 -9.81 0 
0 -9.81 0 
0 -9.81 0 
TENSORS cauchy_stress double
816.602 1536.58 0
1536.58 3358.65 0
0 0 1252.58

-2008.17 -2019.94 0
-2019.94 -2835.83 0
0 0 -1453.2

-1925.76 -2052.97 0
-2052.97 4037.63 0
0 0 633.559

-2428.16 3068.46 0
3068.46 -2048.1 0
0 0 -1342.88

5206.45 3119.51 0
3119.51 -1025.83 0
0 0 1254.19

10763 -154.615 0
-154.615 999.688 0
0 0 3528.81

-4812.53 8216.68 0
8216.68 -1420.25 0
0 0 -1869.83

1454.18 -4199.02 0
-4199.02 -598.565 0
0 0 256.683

-5372.8 738.992 0
738.992 -137.71 0
0 0 -1653.15

-1611.74 -1230.4 0
-1230.4 -1088.22 0
0 0 -809.987

-7102.72 5593.99 0
5593.99 -5944.56 0
0 0 -3914.18

-3880.26 1806.21 0
1806.21 -4215.5 0
0 0 -2428.73

2396.69 -2287.22 0
-2287.22 1200.67 0
0 0 1079.21

-2864.54 -1422.67 0
-1422.67 2618.32 0
0 0 -73.866

-2094.18 391.844 0
391.844 -3333.16 0
0 0 -1628.2

-1271.44 2527.09 0
2527.09 5113.54 0
0 0 1152.63

-4292.24 -686.338 0
-686.338 4456.71 0
0 0 49.3436

-1414.75 -433.628 0
-433.628 -6606.94 0
0 0 -2406.51

466.506 -311.632 0
-311.632 2073.52 0
0 0 762.009

5528.72 -59.8804 0
-59.8804 1434.71 0
0 0 2089.03

-6961.94 2737.37 0
2737.37 1219.47 0
0 0 -1722.74

635.386 -5893.99 0
-5893.99 7329.44 0
0 0 2389.45

-8578.71 3003.34 0
3003.34 -769.438 0
0 0 -2804.44

-3563.2 2350.84 0
2350.84 -3950.5 0
0 0 -2254.11

2429.34 -4029.26 0
-4029.26 417.221 0
0 0 853.969

-6013.32 -1960.15 0
-1960.15 3115.12 0
0 0 -869.462

-2811.47 6099.88 0
6099.88 -3014.98 0
0 0 -1747.93

-1383.32 -1523.12 0
-1523.12 -3325.72 0
0 0 -1412.71

4966.48 -1033.75 0
-1033.75 3603.63 0
0 0 2571.03

-249.25 -2794.04 0
-2794.04 2169.28 0
0 0 576.01

-6265.3 -1178.35 0
-1178.35 -5510.38 0
0 0 -3532.7

1294.9 -3361.44 0
-3361.44 1019.92 0
0 0 694.445

-7486.86 -1614.33 0
-1614.33 1507.11 0
0 0 -1793.93

-6075.29 185.012 0
185.012 -88.1936 0
0 0 -1849.04

-1703.18 -3467.14 0
-3467.14 3303.53 0
0 0 480.105

-8947.69 -1776.86 0
-1776.86 -1288.61 0
0 0 -3070.89

-1058.88 -496.541 0
-496.541 3286.85 0
0 0 668.392

-2707.33 -2065.95 0
-2065.95 1195.83 0
0 0 -453.45

-2339.28 -2315.79 0
-2315.79 1284.22 0
0 0 -316.518

-6124.97 4247.96 0
4247.96 -4207.05 0
0 0 -3099.61

8683.51 382.772 0
382.772 -1022.62 0
0 0 2298.27

28.3439 -7552.87 0
-7552.87 1741.52 0
0 0 530.96

1174.98 5322.59 0
5322.59 480.391 0
0 0 496.613

-4607.45 -132.13 0
-132.13 864.941 0
0 0 -1122.75

-3325.45 -3334.95 0
-3334.95 -1930.28 0
0 0 -1576.72

1202.96 678.92 0
678.92 918.615 0
0 0 636.473

6436.88 1852.91 0
1852.91 -376.039 0
0 0 1818.25

-692.775 -2116.86 0
-2116.86 -2725.98 0
0 0 -1025.63

2482.27 -1497.67 0
-1497.67 3208.97 0
0 0 1707.37

3656.43 318.809 0
318.809 4720.44 0
0 0 2513.06

-1526.3 -1036.69 0
-1036.69 -1353 0
0 0 -863.79

-1201.06 -181.159 0
-181.159 -990.353 0
0 0 -657.424

-509.692 -1738.39 0
-1738.39 309.002 0
0 0 -60.2067

-3386.57 -3026.33 0
-3026.33 -1382.48 0
0 0 -1430.72

-4019.59 15.0309 0
15.0309 -216.5 0
0 0 -1270.83

-2655.76 593.372 0
593.372 -1634.76 0
0 0 -1287.16

-1563.89 -4371.09 0
-4371.09 -974.178 0
0 0 -761.419

-7137.77 -8503.42 0
-8503.42 -2690.42 0
0 0 -2948.46

-7248.93 -2951.65 0
-2951.65 66.7184 0
0 0 -2154.66

-7967.8 -3448.19 0
-3448.19 -2630.57 0
0 0 -3179.51

-196.595 -6683.78 0
-6683.78 -6963.57 0
0 0 -2148.05

-2870.61 -5339.28 0
-5339.28 -3477.95 0
0 0 -1904.57

-1236.89 -3882.15 0
-3882.15 668.196 0
0 0 -170.607

-3801.74 -2969.49 0
-2969.49 -902.734 0
0 0 -1411.34

TENSORS velocity_gradient double
-1.36961 0.860245 0
-0.257344 -0.23342 0
0 0 0

-1.81539 0.720301 0
4.61068 1.08545 0
0 0 0

-0.909282 0.738529 0
3.05061 -0.428631 0
0 0 0

-1.91613 0.799817 0
4.51036 -0.331952 0
0 0 0

-2.10977 -1.00394 0
3.69073 0.812931 0
0 0 0

-1.9614 0.220961 0
0.859893 0.149589 0
0 0 0

-2.05864 0.983375 0
3.19354 0.0288251 0
0 0 0

-2.47367 0.597358 0
0.852173 0.0462422 0
0 0 0

-0.528124 3.24671 0
0.52748 0.335202 0
0 0 0

2.45174 4.30174 0
-0.476797 0.594918 0
0 0 0

-0.885598 0.332148 0
0.358981 -0.0858113 0
0 0 0

1.59954 1.4648 0
-0.458712 -0.700605 0
0 0 0

1.41413 4.90964 0
0.0121638 0.986467 0
0 0 0

-1.92879 5.48873 0
1.87307 2.2807 0
0 0 0

-0.229393 2.7965 0
0.000695862 -1.48106 0
0 0 0

-2.36803 3.53707 0
0.629023 -0.741176 0
0 0 0

-1.77496 -2.07066 0
3.77929 -3.41336 0
0 0 0

-1.92779 -1.47383 0
3.99039 -1.19591 0
0 0 0

-0.261213 -2.22073 0
2.46068 -3.40109 0
0 0 0

-0.625663 -3.81303 0
2.77722 -2.01809 0
0 0 0

-1.95398 0.238085 0
1.67939 -0.0770779 0
0 0 0

-1.98695 0.540197 0
0.909422 0.039519 0
0 0 0

-1.06797 -5.10295 0
0.814422 -1.02466 0
0 0 0

-1.2009 -5.98912 0
0.741689 -0.759241 0
0 0 0

-0.755502 0.392245 0
0.572356 -0.134673 0
0 0 0

0.249647 1.60673 0
0.223743 -0.772356 0
0 0 0

-1.60657 -6.35607 0
0.815809 -0.560185 0
0 0 0

-1.33241 -4.82747 0
0.809685 -0.592697 0
0 0 0

-1.00317 2.80904 0
0.927961 -1.54684 0
0 0 0

-1.87788 2.47513 0
1.40678 -2.44141 0
0 0 0

-1.31094 -3.73901 0
1.87069 -0.582034 0
0 0 0

-1.33112 -3.94311 0
2.02991 -0.507574 0
0 0 0

1.01996 -3.88078 0
1.72787 0.406762 0
0 0 0

0.782951 -4.04079 0
1.71131 -1.43267 0
0 0 0

1.28114 -4.08472 0
3.15496 0.655302 0
0 0 0

1.23086 -4.29906 0
2.81845 -0.779263 0
0 0 0

-0.239535 -5.05397 0
0.45013 -1.04382 0
0 0 0

-0.294696 -6.05679 0
0.48153 -0.739812 0
0 0 0

-0.788806 -4.04653 0
0.150093 -1.40448 0
0 0 0

-0.687562 -3.13612 0
0.182551 -1.11261 0
0 0 0

-3.1956 -6.33423 0
0.856792 -0.554602 0
0 0 0

-2.9521 -4.77668 0
0.850635 -0.593981 0
0 0 0

-3.85057 -2.7438 0
0.618231 -0.702072 0
0 0 0

-3.88897 -3.24227 0
0.662551 -0.126784 0
0 0 0

-0.837058 -3.7223 0
1.78293 -0.579383 0
0 0 0

-0.718962 -4.31015 0
1.85662 -0.393292 0
0 0 0

-0.458585 -3.35263 0
1.32525 0.692245 0
0 0 0

-0.407572 -2.62331 0
1.41973 1.81794 0
0 0 0

1.40279 -5.1439 0
4.2406 -3.47059 0
0 0 0

1.40444 -4.64012 0
4.11254 -2.15404 0
0 0 0

1.18788 -5.23864 0
3.96378 -3.98947 0
0 0 0

0.290669 -5.00235 0
2.3931 -3.5548 0
0 0 0

-1.72412 -4.13791 0
-0.263832 -1.71668 0
0 0 0

-1.57743 -2.94747 0
-0.102732 -1.05213 0
0 0 0

-2.12383 -4.7466 0
-1.73635 -2.20658 0
0 0 0

-2.35199 -4.42459 0
-1.2932 -0.60379 0
0 0 0

-3.32972 -2.8434 0
0.0171237 -0.587128 0
0 0 0

-3.33966 -3.34121 0
0.0285963 -0.0126054 0
0 0 0

-3.93802 -2.94906 0
-0.966039 0.703316 0
0 0 0

-3.82195 -1.19 0
-0.888374 1.88027 0
0 0 0

-1.24747 -3.25212 0
0.144638 0.842679 0
0 0 0

-1.15965 -2.41567 0
0.276056 2.09448 0
0 0 0

-2.96492 2.08935 0
-0.817978 2.48414 0
0 0 0

-2.83241 5.75131 0
-0.779023 2.85461 0
0 0 0

SCALARS active double 1
LOOKUP_TABLE default
1
1
1
1
1
1
1
1
1
1
1
1
1
1
1
1
1
1
1
1
1
1
1
1
1
1
1
1
1
1
1
1
1
1
1
1
1
1
1
1
1
1
1
1
1
1
1
1
1
1
1
1
1
1
1
1
1
1
1
1
1
1
1
1
SCALARS extent double 1
LOOKUP_TABLE default
0.0125
0.0125
0.0125
0.0125
0.0125
0.0125
0.0125
0.0125
0.0125
0.0125
0.0125
0.0125
0.0125
0.0125
0.0125
0.0125
0.0125
0.0125
0.0125
0.0125
0.0125
0.0125
0.0125
0.0125
0.0125
0.0125
0.0125
0.0125
0.0125
0.0125
0.0125
0.0125
0.0125
0.0125
0.0125
0.0125
0.0125
0.0125
0.0125
0.0125
0.0125
0.0125
0.0125
0.0125
0.0125
0.0125
0.0125
0.0125
0.0125
0.0125
0.0125
0.0125
0.0125
0.0125
0.0125
0.0125
0.0125
0.0125
0.0125
0.0125
0.0125
0.0125
0.0125
0.0125
SCALARS pressure double 1
LOOKUP_TABLE default
-1809.28
2099.06
-915.141
1939.71
-1811.6
-5097.17
2700.87
-370.765
2387.89
1169.98
5653.82
3508.16
-1558.86
106.695
2351.85
-1664.91
-71.2741
3476.07
-1100.68
-3017.49
2488.4
-3451.42
4050.86
3255.94
-1233.51
1255.89
2524.79
2040.59
-3713.72
-832.014
5102.8
-1003.09
2591.23
2670.84
-693.485
4435.73
-965.455
654.983
457.193
4477.21
-3319.72
-766.942
-717.329
1621.75
2277.49
-919.35
-2626.37
1481.46
-2466.21
-3629.97
1247.7
949.612
86.9652
2066.59
1835.64
1859.23
1099.83
4258.88
3112.29
4592.63
3102.74
2751.04
246.432
2038.6
SCALARS density double 1
LOOKUP_TABLE default
978.523
1025.51
989.078
1023.55
978.495
940.667
1032.94
995.561
1029.07
1014.14
1070.2
1043
981.468
1001.28
1028.62
980.219
999.145
1042.6
986.879
964.438
1030.31
959.429
1049.81
1039.84
985.307
1015.18
1030.76
1024.79
956.414
990.066
1063.15
988.035
1031.58
1032.57
991.713
1054.67
988.481
1007.89
1005.5
1055.2
960.946
990.839
991.429
1019.65
1027.71
989.028
968.975
1017.94
970.839
957.375
1015.09
1011.46
1001.04
1025.11
1022.27
1022.56
1013.29
1052.44
1038.05
1056.66
1037.93
1033.56
1002.96
1024.76
