# vtk DataFile Version 3.0
Frame: 1, Time: 0.017
ASCII
DATASET UNSTRUCTURED_GRID
POINTS 64 double
0.4125 0.410822 0 
0.4125 0.435822 0 
0.4375 0.410822 0 
0.4375 0.435822 0 
0.4125 0.460822 0 
0.4125 0.485822 0 
0.4375 0.460822 0 
0.4375 0.485822 0 
0.4125 0.510822 0 
0.4125 0.535822 0 
0.4375 0.510822 0 
0.4375 0.535822 0 
0.4125 0.560822 0 
0.4125 0.585822 0 
0.4375 0.560822 0 
0.4375 0.585822 0 
0.4625 0.410822 0 
0.4625 0.435822 0 
0.4875 0.410822 0 
0.4875 0.435822 0 
0.4625 0.460822 0 
0.4625 0.485822 0 
0.4875 0.460822 0 
0.4875 0.485822 0 
0.4625 0.510822 0 
0.4625 0.535822 0 
0.4875 0.510822 0 
0.4875 0.535822 0 
0.4625 0.560822 0 
0.4625 0.585822 0 
0.4875 0.560822 0 
0.4875 0.585822 0 
0.5125 0.410822 0 
0.5125 0.435822 0 
0.5375 0.410822 0 
0.5375 0.435822 0 
0.5125 0.460822 0 
0.5125 0.485822 0 
0.5375 0.460822 0 
0.5375 0.485822 0 
0.5125 0.510822 0 
0.5125 0.535822 0 
0.5375 0.510822 0 
0.5375 0.535822 0 
0.5125 0.560822 0 
0.5125 0.585822 0 
0.5375 0.560822 0 
0.5375 0.585822 0 
0.5625 0.410822 0 
0.5625 0.435822 0 
0.5875 0.410822 0 
0.5875 0.435822 0 
0.5625 0.460822 0 
0.5625 0.485822 0 
0.5875 0.460822 0 
0.5875 0.485822 0 
0.5625 0.510822 0 
0.5625 0.535822 0 
0.5875 0.510822 0 
0.5875 0.535822 0 
0.5625 0.560822 0 
0.5625 0.585822 0 
0.5875 0.560822 0 
0.5875 0.585822 0 
CELLS 64 128
1 0
1 1
1 2
1 3
1 4
1 5
1 6
1 7
1 8
1 9
1 10
1 11
1 12
1 13
1 14
1 15
1 16
1 17
1 18
1 19
1 20
1 21
1 22
1 23
1 24
1 25
1 26
1 27
1 28
1 29
1 30
1 31
1 32
1 33
1 34
1 35
1 36
1 37
1 38
1 39
1 40
1 41
1 42
1 43
1 44
1 45
1 46
1 47
1 48
1 49
1 50
1 51
1 52
1 53
1 54
1 55
1 56
1 57
1 58
1 59
1 60
1 61
1 62
1 63
CELL_TYPES 64
1
1
1
1
1
1
1
1
1
1
1
1
1
1
1
1
1
1
1
1
1
1
1
1
1
1
1
1
1
1
1
1
1
1
1
1
1
1
1
1
1
1
1
1
1
1
1
1
1
1
1
1
1
1
1
1
1
1
1
1
1
1
1
1
POINT_DATA 64
VECTORS displacement double
2.35603e-19 -0.00167751 0 
2.2265e-19 -0.00167751 0 
2.15834e-19 -0.00167751 0 
1.61801e-19 -0.00167751 0 
2.08628e-19 -0.00167751 0 
1.93366e-19 -0.00167751 0 
1.19835e-19 -0.00167751 0 
9.14762e-20 -0.00167751 0 
1.46637e-19 -0.00167751 0 
6.4072e-20 -0.00167751 0 
4.61768e-20 -0.00167751 0 
-1.88723e-20 -0.00167751 0 
3.59656e-22 -0.00167751 0 
-4.17578e-20 -0.00167751 0 
-7.3733e-20 -0.00167751 0 
-1.16689e-19 -0.00167751 0 
2.07106e-19 -0.00167751 0 
1.19622e-19 -0.00167751 0 
2.09419e-19 -0.00167751 0 
9.61131e-20 -0.00167751 0 
5.30383e-20 -0.00167751 0 
1.04497e-20 -0.00167751 0 
8.23863e-21 -0.00167751 0 
-4.97136e-20 -0.00167751 0 
-3.48817e-20 -0.00167751 0 
-8.37329e-20 -0.00167751 0 
-9.6538e-20 -0.00167751 0 
-1.3051e-19 -0.00167751 0 
-1.26662e-19 -0.00167751 0 
-1.62647e-19 -0.00167751 0 
-1.58427e-19 -0.00167751 0 
-1.79633e-19 -0.00167751 0 
1.90708e-19 -0.00167751 0 
6.61471e-20 -0.00167751 0 
1.50974e-19 -0.00167751 0 
2.97242e-20 -0.00167751 0 
-3.24477e-20 -0.00167751 0 
-1.00248e-19 -0.00167751 0 
-6.90208e-20 -0.00167751 0 
-1.41153e-19 -0.00167751 0 
-1.46065e-19 -0.00167751 0 
-1.65871e-19 -0.00167751 0 
-1.83463e-19 -0.00167751 0 
-1.89815e-19 -0.00167751 0 
-1.77427e-19 -0.00167751 0 
-1.80053e-19 -0.00167751 0 
-1.83661e-19 -0.00167751 0 
-1.63906e-19 -0.00167751 0 
9.16946e-20 -0.00167751 0 
-2.18631e-20 -0.00167751 0 
1.28704e-20 -0.00167751 0 
-8.8615e-20 -0.00167751 0 
-1.12822e-19 -0.00167751 0 
-1.77654e-19 -0.00167751 0 
-1.63852e-19 -0.00167751 0 
-2.0975e-19 -0.00167751 0 
-2.00961e-19 -0.00167751 0 
-1.74302e-19 -0.00167751 0 
-1.98561e-19 -0.00167751 0 
-1.19332e-19 -0.00167751 0 
-1.54856e-19 -0.00167751 0 
-1.43506e-19 -0.00167751 0 
-9.10123e-20 -0.00167751 0 
-1.1885e-19 -0.00167751 0 
VECTORS velocity double
4.19657e-17 -0.17658 0 
4.01862e-17 -0.17658 0 
3.50371e-17 -0.17658 0 
2.03482e-17 -0.17658 0 
3.96911e-17 -0.17658 0 
4.09513e-17 -0.17658 0 
1.32662e-17 -0.17658 0 
1.4744e-17 -0.17658 0 
3.40573e-17 -0.17658 0 
1.84945e-17 -0.17658 0 
9.6678e-18 -0.17658 0 
-2.92337e-18 -0.17658 0 
7.68029e-18 -0.17658 0 
1.94809e-18 -0.17658 0 
-1.46605e-17 -0.17658 0 
-2.54485e-17 -0.17658 0 
3.61273e-17 -0.17658 0 
9.80144e-18 -0.17658 0 
4.52366e-17 -0.17658 0 
8.54596e-18 -0.17658 0 
-3.93707e-18 -0.17658 0 
-3.39158e-18 -0.17658 0 
-1.19187e-17 -0.17658 0 
-1.34556e-17 -0.17658 0 
-7.04212e-18 -0.17658 0 
-1.58324e-17 -0.17658 0 
-1.60725e-17 -0.17658 0 
-2.02326e-17 -0.17658 0 
-2.64571e-17 -0.17658 0 
-3.91948e-17 -0.17658 0 
-2.77094e-17 -0.17658 0 
-3.92907e-17 -0.17658 0 
5.07912e-17 -0.17658 0 
9.32751e-18 -0.17658 0 
5.27913e-17 -0.17658 0 
1.21461e-17 -0.17658 0 
-1.59013e-17 -0.17658 0 
-2.20133e-17 -0.17658 0 
-1.58847e-17 -0.17658 0 
-2.90646e-17 -0.17658 0 
-2.62755e-17 -0.17658 0 
-2.85024e-17 -0.17658 0 
-3.76512e-17 -0.17658 0 
-4.06417e-17 -0.17658 0 
-3.12679e-17 -0.17658 0 
-3.52398e-17 -0.17658 0 
-3.71327e-17 -0.17658 0 
-2.70422e-17 -0.17658 0 
4.37367e-17 -0.17658 0 
8.20337e-18 -0.17658 0 
2.36275e-17 -0.17658 0 
-2.50069e-18 -0.17658 0 
-1.89896e-17 -0.17658 0 
-3.67373e-17 -0.17658 0 
-2.5216e-17 -0.17658 0 
-4.50314e-17 -0.17658 0 
-4.26722e-17 -0.17658 0 
-3.46208e-17 -0.17658 0 
-4.13385e-17 -0.17658 0 
-1.04395e-17 -0.17658 0 
-2.56632e-17 -0.17658 0 
-1.56786e-17 -0.17658 0 
3.14059e-18 -0.17658 0 
-1.14903e-18 -0.17658 0 
SCALARS mass double 1
LOOKUP_TABLE default
0.625
0.625
0.625
0.625
0.625
0.625
0.625
0.625
0.625
0.625
0.625
0.625
0.625
0.625
0.625
0.625
0.625
0.625
0.625
0.625
0.625
0.625
0.625
0.625
0.625
0.625
0.625
0.625
0.625
0.625
0.625
0.625
0.625
0.625
0.625
0.625
0.625
0.625
0.625
0.625
0.625
0.625
0.625
0.625
0.625
0.625
0.625
0.625
0.625
0.625
0.625
0.625
0.625
0.625
0.625
0.625
0.625
0.625
0.625
0.625
0.625
0.625
0.625
0.625
SCALARS volume double 1
LOOKUP_TABLE default
0.000625
0.000625
0.000625
0.000625
0.000625
0.000625
0.000625
0.000625
0.000625
0.000625
0.000625
0.000625
0.000625
0.000625
0.000625
0.000625
0.000625
0.000625
0.000625
0.000625
0.000625
0.000625
0.000625
0.000625
0.000625
0.000625
0.000625
0.000625
0.000625
0.000625
0.000625
0.000625
0.000625
0.000625
0.000625
0.000625
0.000625
0.000625
0.000625
0.000625
0.000625
0.000625
0.000625
0.000625
0.000625
0.000625
0.000625
0.000625
0.000625
0.000625
0.000625
0.000625
0.000625
0.000625
0.000625
0.000625
0.000625
0.000625
0.000625
0.000625
0.000625
0.000625
0.000625
0.000625
VECTORS momentum double
2.62286e-17 -0.110362 0 
2.51164e-17 -0.110362 0 
2.18982e-17 -0.110362 0 
1.27176e-17 -0.110362 0 
2.4807e-17 -0.110362 0 
2.55945e-17 -0.110363 0 
8.29139e-18 -0.110362 0 
9.21502e-18 -0.110363 0 
2.12858e-17 -0.110362 0 
1.15591e-17 -0.110362 0 
6.04238e-18 -0.110362 0 
-1.82711e-18 -0.110362 0 
4.80018e-18 -0.110363 0 
1.21756e-18 -0.110363 0 
-9.16283e-18 -0.110362 0 
-1.59053e-17 -0.110362 0 
2.25796e-17 -0.110362 0 
6.1259e-18 -0.110362 0 
2.82728e-17 -0.110363 0 
5.34122e-18 -0.110362 0 
-2.46067e-18 -0.110362 0 
-2.11974e-18 -0.110363 0 
-7.44921e-18 -0.110362 0 
-8.40975e-18 -0.110363 0 
-4.40132e-18 -0.110362 0 
-9.89526e-18 -0.110362 0 
-1.00453e-17 -0.110362 0 
-1.26454e-17 -0.110362 0 
-1.65357e-17 -0.110363 0 
-2.44967e-17 -0.110362 0 
-1.73184e-17 -0.110362 0 
-2.45567e-17 -0.110362 0 
3.17445e-17 -0.110362 0 
5.82969e-18 -0.110362 0 
3.29946e-17 -0.110362 0 
7.59131e-18 -0.110362 0 
-9.93831e-18 -0.110362 0 
-1.37583e-17 -0.110362 0 
-9.92796e-18 -0.110362 0 
-1.81654e-17 -0.110362 0 
-1.64222e-17 -0.110362 0 
-1.7814e-17 -0.110362 0 
-2.3532e-17 -0.110362 0 
-2.54011e-17 -0.110362 0 
-1.95424e-17 -0.110362 0 
-2.20249e-17 -0.110362 0 
-2.3208e-17 -0.110362 0 
-1.69014e-17 -0.110362 0 
2.73355e-17 -0.110362 0 
5.1271e-18 -0.110362 0 
1.47672e-17 -0.110362 0 
-1.56293e-18 -0.110362 0 
-1.18685e-17 -0.110362 0 
-2.29608e-17 -0.110362 0 
-1.576e-17 -0.110362 0 
-2.81446e-17 -0.110362 0 
-2.66701e-17 -0.110362 0 
-2.1638e-17 -0.110362 0 
-2.58365e-17 -0.110362 0 
-6.5247e-18 -0.110362 0 
-1.60395e-17 -0.110362 0 
-9.79915e-18 -0.110362 0 
1.96287e-18 -0.110362 0 
-7.18144e-19 -0.110362 0 
VECTORS body_force double
0 -9.81 0 
0 -9.81 0 
0 -9.81 0 
0 -9.81 0 
0 -9.81 0 
0 -9.81 0 
0 -9.81 0 
0 -9.81 0 
0 -9.81 0 
0 -9.81 0 
0 -9.81 0 
0 -9.81 0 
0 -9.81 0 
0 -9.81 0 
0 -9.81 0 
0 -9.81 0 
0 -9.81 0 
0 -9.81 0 
0 -9.81 0 
0 -9.81 0 
0 -9.81 0 
0 -9.81 0 
0 -9.81 0 
0 -9.81 0 
0 -9.81 0 
0 -9.81 0 
0 -9.81 0 
0 -9.81 0 
0 -9.81 0 
0 -9.81 0 
0 -9.81 0 
0 -9.81 0 
0 -9.81 0 
0 -9.81 0 
0 -9.81 0 
0 -9.81 0 
0 -9.81 0 
0 -9.81 0 
0 -9.81 0 
0 -9.81 0 
0 -9.81 0 
0 -9.81 0 
0 -9.81 0 
0 -9.81 0 
0 -9.81 0 
0 -9.81 0 
0 -9.81 0 
0 -9.81 0 
0 -9.81 0 
0 -9.81 0 
0 -9.81 0 
0 -9.81 0 
0 -9.81 0 
0 -9.81 0 
0 -9.81 0 
0 -9.81 0 
0 -9.81 0 
0 -9.81 0 
0 -9.81 0 
0 -9.81 0 
0 -9.81 0 
0 -9.81 0 
0 -9.81 0 
0 -9.81 0 
TENSORS cauchy_stress double
2.97474e-13 3.3714e-14 0
3.3714e-14 8.96867e-13 0
0 0 3.58302e-13

-2.68398e-13 -2.1315e-13 0
-2.1315e-13 -2.17517e-15 0
0 0 -8.11718e-14

6.32864e-14 2.37129e-13 0
2.37129e-13 3.50429e-13 0
0 0 1.24115e-13

-2.12353e-13 -4.63166e-13 0
-4.63166e-13 1.28596e-13 0
0 0 -2.51269e-14

-1.97491e-14 -1.96152e-13 0
-1.96152e-13 8.64617e-13 0
0 0 2.5346e-13

-2.36386e-13 -2.40187e-13 0
-2.40187e-13 4.93454e-13 0
0 0 7.71206e-14

-5.67788e-13 -2.22972e-13 0
-2.22972e-13 -4.14141e-13 0
0 0 -2.94579e-13

5.85073e-13 -3.76695e-13 0
-3.76695e-13 2.41019e-12 0
0 0 8.98579e-13

2.26473e-13 -1.79065e-13 0
-1.79065e-13 1.5588e-12 0
0 0 5.35583e-13

1.65067e-13 -4.96386e-13 0
-4.96386e-13 1.23587e-12 0
0 0 4.2028e-13

-4.75289e-13 -9.04678e-14 0
-9.04678e-14 -7.86428e-14 0
0 0 -1.6618e-13

1.90688e-13 -4.43818e-13 0
-4.43818e-13 1.29565e-12 0
0 0 4.45901e-13

2.96187e-15 5.36989e-14 0
5.36989e-14 7.66835e-13 0
0 0 2.30939e-13

-1.92106e-13 -1.35252e-13 0
-1.35252e-13 3.20277e-13 0
0 0 3.84514e-14

-6.3595e-13 -2.4543e-13 0
-2.4543e-13 -7.23959e-13 0
0 0 -4.07973e-13

3.90761e-13 -4.90057e-14 0
-4.90057e-14 1.6803e-12 0
0 0 6.21318e-13

-2.05722e-13 2.53721e-13 0
2.53721e-13 -5.03738e-13 0
0 0 -2.12838e-13

-6.21385e-13 4.62155e-13 0
4.62155e-13 -1.20878e-12 0
0 0 -5.49049e-13

1.29347e-13 3.83998e-13 0
3.83998e-13 2.78089e-13 0
0 0 1.22231e-13

-8.09323e-15 1.05375e-13 0
1.05375e-13 2.22236e-13 0
0 0 6.42429e-14

-1.41149e-13 1.57058e-13 0
1.57058e-13 1.30137e-13 0
0 0 -3.30364e-15

-1.67031e-13 3.89244e-13 0
3.89244e-13 2.27322e-13 0
0 0 1.80873e-14

-4.9075e-14 5.85517e-13 0
5.85517e-13 3.44975e-13 0
0 0 8.87701e-14

1.75644e-13 1.45698e-13 0
1.45698e-13 1.0269e-12 0
0 0 3.60762e-13

1.03954e-13 3.82011e-13 0
3.82011e-13 8.74931e-13 0
0 0 2.93665e-13

-2.12913e-14 2.1094e-13 0
2.1094e-13 4.30084e-13 0
0 0 1.22638e-13

-2.66343e-13 2.39169e-13 0
2.39169e-13 1.09056e-14 0
0 0 -7.66313e-14

3.63549e-14 3.10693e-13 0
3.10693e-13 5.64592e-13 0
0 0 1.80284e-13

1.13984e-13 3.07595e-13 0
3.07595e-13 5.91762e-13 0
0 0 2.11724e-13

2.44807e-13 1.11171e-13 0
1.11171e-13 7.45431e-13 0
0 0 2.97071e-13

-2.54311e-13 3.02577e-13 0
3.02577e-13 -2.67594e-13 0
0 0 -1.56571e-13

1.51933e-13 2.32121e-13 0
2.32121e-13 5.28724e-13 0
0 0 2.04197e-13

-7.75203e-13 4.48348e-13 0
4.48348e-13 -1.40128e-12 0
0 0 -6.52944e-13

-6.97325e-13 3.88033e-13 0
3.88033e-13 -1.25352e-12 0
0 0 -5.85254e-13

-2.23561e-13 2.59687e-13 0
2.59687e-13 -1.14112e-13 0
0 0 -1.01302e-13

-6.70103e-13 2.0204e-13 0
2.0204e-13 -1.19001e-12 0
0 0 -5.58033e-13

-2.09742e-13 5.44746e-13 0
5.44746e-13 -1.1429e-13 0
0 0 -9.72096e-14

1.86467e-13 1.75383e-13 0
1.75383e-13 8.54631e-13 0
0 0 3.12329e-13

-2.03337e-13 3.24576e-13 0
3.24576e-13 -9.93447e-14 0
0 0 -9.08045e-14

7.11747e-14 2.6693e-13 0
2.6693e-13 5.85615e-13 0
0 0 1.97037e-13

3.29854e-13 5.24374e-13 0
5.24374e-13 1.15322e-12 0
0 0 4.44923e-13

1.72109e-13 4.63913e-14 0
4.63913e-14 6.47173e-13 0
0 0 2.45784e-13

-2.44607e-13 3.37171e-13 0
3.37171e-13 -1.87183e-13 0
0 0 -1.29537e-13

4.72085e-14 -7.63827e-15 0
-7.63827e-15 3.55739e-13 0
0 0 1.20884e-13

2.53063e-13 2.85258e-13 0
2.85258e-13 6.54417e-13 0
0 0 2.72244e-13

-7.47876e-14 -2.82663e-13 0
-2.82663e-13 -3.40108e-13 0
0 0 -1.24469e-13

-4.1147e-13 7.3092e-14 0
7.3092e-14 -8.96159e-13 0
0 0 -3.92289e-13

-1.91681e-13 2.8256e-14 0
2.8256e-14 -6.1286e-13 0
0 0 -2.41362e-13

-2.91531e-13 1.6797e-13 0
1.6797e-13 1.28213e-13 0
0 0 -4.89954e-14

-6.87696e-13 1.61565e-13 0
1.61565e-13 -9.1999e-13 0
0 0 -4.82306e-13

-5.22116e-13 1.67328e-13 0
1.67328e-13 -4.09818e-13 0
0 0 -2.7958e-13

-3.59433e-13 -2.16236e-14 0
-2.16236e-14 -1.54043e-13 0
0 0 -1.54043e-13

-2.16331e-13 1.07892e-13 0
1.07892e-13 1.86142e-14 0
0 0 -5.93149e-14

-3.44163e-13 1.85288e-13 0
1.85288e-13 -4.73855e-13 0
0 0 -2.45405e-13

-2.49157e-13 2.88076e-13 0
2.88076e-13 -5.79805e-14 0
0 0 -9.21412e-14

-1.72825e-13 6.17613e-14 0
6.17613e-14 -7.4068e-14 0
0 0 -7.4068e-14

-4.0719e-14 2.31567e-13 0
2.31567e-13 -1.19628e-13 0
0 0 -4.81041e-14

5.81024e-13 -1.91706e-13 0
-1.91706e-13 7.91921e-13 0
0 0 4.11883e-13

-6.87414e-14 1.05879e-13 0
1.05879e-13 -1.85014e-13 0
0 0 -7.61266e-14

4.52921e-13 4.46391e-15 0
4.46391e-15 4.93015e-13 0
0 0 2.83781e-13

-1.57152e-14 5.5359e-14 0
5.5359e-14 -6.91474e-13 0
0 0 -2.12157e-13

-4.72525e-13 -3.71116e-13 0
-3.71116e-13 -1.35543e-12 0
0 0 -5.48388e-13

-3.52785e-13 -2.01888e-13 0
-2.01888e-13 -1.47797e-12 0
0 0 -5.49227e-13

-7.1592e-13 -4.22865e-13 0
-4.22865e-13 -1.92336e-12 0
0 0 -7.91783e-13

TENSORS velocity_gradient double
-2.70969e-16 -2.1549e-16 0
0 -1.77636e-15 0
0 0 0

-3.58835e-16 -2.1549e-16 0
8.88178e-16 -3.55271e-15 0
0 0 0

-2.70969e-16 -3.03356e-16 0
-4.44089e-16 -1.33227e-15 0
0 0 0

-3.58835e-16 -3.03356e-16 0
-8.88178e-16 8.88178e-16 0
0 0 0

-4.21551e-16 -1.30932e-16 0
-3.10862e-15 -1.33227e-15 0
0 0 0

-4.52252e-16 -1.30932e-16 0
-3.55271e-15 -8.88178e-16 0
0 0 0

-4.21551e-16 -1.61633e-16 0
-2.22045e-15 -2.22045e-15 0
0 0 0

-4.52252e-16 -1.61633e-16 0
-3.55271e-15 2.66454e-15 0
0 0 0

-4.68791e-16 -3.78535e-16 0
-3.10862e-15 2.22045e-15 0
0 0 0

-4.67301e-16 -3.78535e-16 0
-2.22045e-15 4.44089e-16 0
0 0 0

-4.68791e-16 -3.77046e-16 0
-8.88178e-16 8.88178e-16 0
0 0 0

-4.67301e-16 -3.77046e-16 0
-3.55271e-15 1.77636e-15 0
0 0 0

-4.85339e-16 -2.16191e-16 0
-6.66134e-16 1.11022e-15 0
0 0 0

-5.28233e-16 -2.16191e-16 0
0 -2.66454e-15 0
0 0 0

-4.85339e-16 -2.59085e-16 0
-3.9968e-15 1.33227e-15 0
0 0 0

-5.28233e-16 -2.59085e-16 0
-8.88178e-16 2.66454e-15 0
0 0 0

6.45594e-17 -4.59554e-16 0
6.66134e-16 -1.11022e-15 0
0 0 0

-1.5997e-16 -4.59554e-16 0
2.22045e-15 4.44089e-16 0
0 0 0

6.45594e-17 -6.84084e-16 0
4.44089e-16 4.44089e-16 0
0 0 0

-1.5997e-16 -6.84084e-16 0
8.88178e-16 0 0
0 0 0

-3.23475e-16 -2.19896e-16 0
2.10942e-15 -3.21965e-15 0
0 0 0

-4.09299e-16 -2.19896e-16 0
2.22045e-15 -1.33227e-15 0
0 0 0

-3.23475e-16 -3.0572e-16 0
1.33227e-15 -4.44089e-16 0
0 0 0

-4.09299e-16 -3.0572e-16 0
-8.88178e-16 -6.21725e-15 0
0 0 0

-4.14237e-16 -3.27289e-16 0
0 0 0
0 0 0

-3.16213e-16 -3.27289e-16 0
8.88178e-16 3.55271e-15 0
0 0 0

-4.14237e-16 -2.29265e-16 0
4.44089e-16 3.10862e-15 0
0 0 0

-3.16213e-16 -2.29265e-16 0
8.88178e-16 5.32907e-15 0
0 0 0

-2.34925e-16 -2.50541e-16 0
2.66454e-15 4.44089e-15 0
0 0 0

-1.74942e-16 -2.50541e-16 0
1.77636e-15 5.32907e-15 0
0 0 0

-2.34925e-16 -1.90557e-16 0
2.22045e-15 4.44089e-16 0
0 0 0

-1.74942e-16 -1.90557e-16 0
8.88178e-16 0 0
0 0 0

-2.74858e-17 -8.27146e-16 0
1.9984e-15 -1.55431e-15 0
0 0 0

-8.90806e-17 -8.27146e-16 0
4.44089e-16 -3.10862e-15 0
0 0 0

-2.74858e-17 -8.88741e-16 0
2.22045e-15 1.33227e-15 0
0 0 0

-8.90806e-17 -8.88741e-16 0
-8.88178e-16 -8.88178e-16 0
0 0 0

-1.72167e-16 -4.03854e-16 0
1.9984e-15 -3.33067e-15 0
0 0 0

-2.8261e-16 -4.03854e-16 0
4.44089e-16 -3.10862e-15 0
0 0 0

-1.72167e-16 -5.14297e-16 0
8.88178e-16 -4.44089e-15 0
0 0 0

-2.8261e-16 -5.14297e-16 0
8.88178e-16 -2.66454e-15 0
0 0 0

-2.79443e-16 -1.06362e-16 0
2.10942e-15 3.88578e-15 0
0 0 0

-1.31661e-16 -1.06362e-16 0
-1.33227e-15 1.33227e-15 0
0 0 0

-2.79443e-16 4.14209e-17 0
4.44089e-16 4.44089e-16 0
0 0 0

-1.31661e-16 4.14209e-17 0
-8.88178e-16 -8.88178e-16 0
0 0 0

1.06729e-17 -9.28658e-17 0
-2.22045e-16 1.55431e-15 0
0 0 0

1.46071e-16 -9.28658e-17 0
-8.88178e-16 -1.77636e-15 0
0 0 0

1.06729e-17 4.25322e-17 0
-4.44089e-16 -4.44089e-16 0
0 0 0

1.46071e-16 4.25322e-17 0
-8.88178e-16 -8.88178e-16 0
0 0 0

-1.70438e-16 -8.6769e-16 0
0 -1.77636e-15 0
0 0 0

-6.67419e-17 -8.6769e-16 0
0 -1.77636e-15 0
0 0 0

-1.70438e-16 -7.63994e-16 0
8.88178e-16 8.88178e-16 0
0 0 0

-6.67419e-17 -7.63994e-16 0
0 8.88178e-16 0
0 0 0

-2.25755e-17 -5.85324e-16 0
-2.22045e-16 -3.77476e-15 0
0 0 0

-5.41854e-17 -5.85324e-16 0
2.66454e-15 -4.44089e-15 0
0 0 0

-2.25755e-17 -6.16934e-16 0
-4.44089e-16 -2.22045e-15 0
0 0 0

-5.41854e-17 -6.16934e-16 0
2.66454e-15 -8.88178e-16 0
0 0 0

1.37361e-17 2.12621e-16 0
2.55351e-15 -1.88738e-15 0
0 0 0

2.08353e-16 2.12621e-16 0
4.44089e-16 -3.10862e-15 0
0 0 0

1.37361e-17 4.07237e-16 0
2.22045e-15 4.44089e-16 0
0 0 0

2.08353e-16 4.07237e-16 0
8.88178e-16 0 0
0 0 0

3.54865e-16 1.5287e-16 0
6.66134e-16 2.44249e-15 0
0 0 0

4.40144e-16 1.5287e-16 0
-1.77636e-15 8.88178e-16 0
0 0 0

3.54865e-16 2.38149e-16 0
1.33227e-15 1.33227e-15 0
0 0 0

4.40144e-16 2.38149e-16 0
-1.77636e-15 0 0
0 0 0

SCALARS active double 1
LOOKUP_TABLE default
1
1
1
1
1
1
1
1
1
1
1
1
1
1
1
1
1
1
1
1
1
1
1
1
1
1
1
1
1
1
1
1
1
1
1
1
1
1
1
1
1
1
1
1
1
1
1
1
1
1
1
1
1
1
1
1
1
1
1
1
1
1
1
1
SCALARS extent double 1
LOOKUP_TABLE default
0.0125
0.0125
0.0125
0.0125
0.0125
0.0125
0.0125
0.0125
0.0125
0.0125
0.0125
0.0125
0.0125
0.0125
0.0125
0.0125
0.0125
0.0125
0.0125
0.0125
0.0125
0.0125
0.0125
0.0125
0.0125
0.0125
0.0125
0.0125
0.0125
0.0125
0.0125
0.0125
0.0125
0.0125
0.0125
0.0125
0.0125
0.0125
0.0125
0.0125
0.0125
0.0125
0.0125
0.0125
0.0125
0.0125
0.0125
0.0125
0.0125
0.0125
0.0125
0.0125
0.0125
0.0125
0.0125
0.0125
0.0125
0.0125
0.0125
0.0125
0.0125
0.0125
0.0125
0.0125
SCALARS pressure double 1
LOOKUP_TABLE default
-5.17548e-13
1.17248e-13
-1.79277e-13
3.62944e-14
-3.66109e-13
-1.11396e-13
4.25503e-13
-1.29795e-12
-7.7362e-13
-6.07072e-13
2.40037e-13
-6.44079e-13
-3.33579e-13
-5.55409e-14
5.89294e-13
-8.9746e-13
3.07432e-13
7.9307e-13
-1.76555e-13
-9.27953e-14
4.77193e-15
-2.61261e-14
-1.28224e-13
-5.21101e-13
-4.24183e-13
-1.77144e-13
1.1069e-13
-2.6041e-13
-3.05823e-13
-4.29103e-13
2.26159e-13
-2.94951e-13
9.43141e-13
8.45367e-13
1.46325e-13
8.06047e-13
1.40414e-13
-4.51142e-13
1.31162e-13
-2.84609e-13
-6.42667e-13
-3.55022e-13
1.87109e-13
-1.74611e-13
-3.93241e-13
1.79788e-13
5.66639e-13
3.48635e-13
7.07712e-14
6.96664e-13
4.03838e-13
2.22506e-13
8.56771e-14
3.54474e-13
1.33093e-13
1.06987e-13
6.94837e-14
-5.94943e-13
1.09961e-13
-4.09906e-13
3.06449e-13
7.92116e-13
7.93328e-13
1.14369e-12
SCALARS density double 1
LOOKUP_TABLE default
1000
1000
1000
1000
1000
1000
1000
1000
1000
1000
1000
1000
1000
1000
1000
1000
1000
1000
1000
1000
1000
1000
1000
1000
1000
1000
1000
1000
1000
1000
1000
1000
1000
1000
1000
1000
1000
1000
1000
1000
1000
1000
1000
1000
1000
1000
1000
1000
1000
1000
1000
1000
1000
1000
1000
1000
1000
1000
1000
1000
1000
1000
1000
1000
