# vtk DataFile Version 3.0
Frame: 50, Time: 0.834
ASCII
DATASET UNSTRUCTURED_GRID
POINTS 64 double
0.346775 0.120426 0 
0.322831 0.112295 0 
0.336912 0.144128 0 
0.312449 0.134278 0 
0.298237 0.102949 0 
0.272401 0.0964296 0 
0.290115 0.125938 0 
0.26537 0.119895 0 
0.249968 0.0881707 0 
0.225892 0.0764064 0 
0.242102 0.111772 0 
0.218893 0.100528 0 
0.199062 0.0718706 0 
0.177263 0.0636984 0 
0.191612 0.0949648 0 
0.169928 0.0867819 0 
0.32508 0.165914 0 
0.302265 0.156236 0 
0.318197 0.188587 0 
0.295576 0.180049 0 
0.28102 0.149563 0 
0.257288 0.143792 0 
0.273729 0.174292 0 
0.25034 0.16715 0 
0.233972 0.133387 0 
0.211941 0.122473 0 
0.226831 0.156802 0 
0.203525 0.14821 0 
0.186113 0.118616 0 
0.16098 0.113225 0 
0.17909 0.143002 0 
0.155407 0.137176 0 
0.312261 0.213351 0 
0.289526 0.203866 0 
0.307442 0.23834 0 
0.283393 0.228749 0 
0.267074 0.197672 0 
0.243184 0.190711 0 
0.261292 0.222496 0 
0.236947 0.216342 0 
0.220226 0.181304 0 
0.198116 0.17406 0 
0.213378 0.205777 0 
0.191257 0.200285 0 
0.17393 0.166565 0 
0.149671 0.160352 0 
0.166083 0.192256 0 
0.140346 0.184488 0 
0.302193 0.261986 0 
0.277145 0.252178 0 
0.29194 0.283937 0 
0.268449 0.27617 0 
0.253648 0.247904 0 
0.22956 0.240029 0 
0.244384 0.272822 0 
0.220466 0.263902 0 
0.205769 0.229966 0 
0.182673 0.224994 0 
0.197079 0.255625 0 
0.173862 0.249066 0 
0.15934 0.215838 0 
0.13427 0.207418 0 
0.151798 0.238732 0 
0.127997 0.23199 0 
CELLS 64 128
1 0
1 1
1 2
1 3
1 4
1 5
1 6
1 7
1 8
1 9
1 10
1 11
1 12
1 13
1 14
1 15
1 16
1 17
1 18
1 19
1 20
1 21
1 22
1 23
1 24
1 25
1 26
1 27
1 28
1 29
1 30
1 31
1 32
1 33
1 34
1 35
1 36
1 37
1 38
1 39
1 40
1 41
1 42
1 43
1 44
1 45
1 46
1 47
1 48
1 49
1 50
1 51
1 52
1 53
1 54
1 55
1 56
1 57
1 58
1 59
1 60
1 61
1 62
1 63
CELL_TYPES 64
1
1
1
1
1
1
1
1
1
1
1
1
1
1
1
1
1
1
1
1
1
1
1
1
1
1
1
1
1
1
1
1
1
1
1
1
1
1
1
1
1
1
1
1
1
1
1
1
1
1
1
1
1
1
1
1
1
1
1
1
1
1
1
1
POINT_DATA 64
VECTORS displacement double
-0.0657245 -0.292074 0 
-0.0896685 -0.325205 0 
-0.100588 -0.268372 0 
-0.125051 -0.303222 0 
-0.114263 -0.359551 0 
-0.140099 -0.39107 0 
-0.147385 -0.336562 0 
-0.17213 -0.367605 0 
-0.162532 -0.424329 0 
-0.186608 -0.461094 0 
-0.195398 -0.400728 0 
-0.218607 -0.436972 0 
-0.213438 -0.490629 0 
-0.235237 -0.523802 0 
-0.245888 -0.467535 0 
-0.267572 -0.500718 0 
-0.13742 -0.246586 0 
-0.160235 -0.281264 0 
-0.169303 -0.223913 0 
-0.191924 -0.257451 0 
-0.18148 -0.312937 0 
-0.205212 -0.343708 0 
-0.213771 -0.288208 0 
-0.23716 -0.32035 0 
-0.228528 -0.379113 0 
-0.250559 -0.415027 0 
-0.260669 -0.355698 0 
-0.283975 -0.38929 0 
-0.276387 -0.443884 0 
-0.30152 -0.474275 0 
-0.30841 -0.419498 0 
-0.332093 -0.450324 0 
-0.200239 -0.199149 0 
-0.222974 -0.233634 0 
-0.230058 -0.17416 0 
-0.254107 -0.208751 0 
-0.245426 -0.264828 0 
-0.269316 -0.296789 0 
-0.276208 -0.240004 0 
-0.300553 -0.271158 0 
-0.292274 -0.331196 0 
-0.314384 -0.36344 0 
-0.324122 -0.306723 0 
-0.346243 -0.337215 0 
-0.33857 -0.395935 0 
-0.362829 -0.427148 0 
-0.371417 -0.370244 0 
-0.397154 -0.403012 0 
-0.260307 -0.150514 0 
-0.285355 -0.185322 0 
-0.29556 -0.128563 0 
-0.319051 -0.16133 0 
-0.308852 -0.214596 0 
-0.33294 -0.247471 0 
-0.343116 -0.189678 0 
-0.367034 -0.223598 0 
-0.356731 -0.282534 0 
-0.379827 -0.312506 0 
-0.390421 -0.256875 0 
-0.413638 -0.288434 0 
-0.40316 -0.346662 0 
-0.42823 -0.380082 0 
-0.435702 -0.323768 0 
-0.459503 -0.35551 0 
VECTORS velocity double
-0.689308 -1.26655 0 
-0.779266 -0.762172 0 
-0.53785 -0.721454 0 
-0.580273 -0.722644 0 
-0.386995 -0.854392 0 
-1.22056 -0.468052 0 
-0.774941 -1.252 0 
-1.22673 -0.641611 0 
-0.435141 -0.812816 0 
-1.07275 -0.727664 0 
-0.202399 -0.795118 0 
-1.16489 -0.641724 0 
-0.586748 -0.531508 0 
-0.77791 -0.745591 0 
-1.01281 -0.175752 0 
-0.990782 -0.689347 0 
-0.706338 -1.15134 0 
-0.756701 -0.998407 0 
-1.42897 -1.09493 0 
-0.97118 -0.906285 0 
-0.586173 -0.903659 0 
-0.628288 -0.68242 0 
-0.712576 -0.644591 0 
-1.05119 -0.663323 0 
-0.28888 -1.16001 0 
-0.713728 -1.255 0 
-0.857418 -0.772618 0 
-0.995773 -0.500229 0 
-0.704864 -0.592139 0 
-0.574863 -0.730421 0 
-0.632726 0.0566163 0 
-0.676635 -0.485307 0 
-1.18024 -0.883014 0 
-0.909909 -0.733741 0 
-0.609732 -0.864922 0 
-0.742424 -0.688185 0 
-0.800111 -0.664554 0 
-0.835713 -0.855051 0 
-1.24525 -0.760323 0 
-1.32269 -0.747913 0 
-0.444892 -0.789858 0 
-0.481319 -0.521371 0 
-0.907678 -0.602636 0 
-1.09959 -0.572917 0 
-0.786336 -0.908139 0 
-0.911645 -1.11887 0 
-1.12492 -0.494784 0 
-0.91853 -0.776725 0 
-0.556162 -0.662216 0 
-0.526261 -0.847797 0 
-0.775306 -0.914079 0 
-0.544315 -0.921915 0 
-0.644496 -0.911064 0 
-0.509912 -0.352418 0 
-0.741399 -0.66786 0 
-0.796048 -0.562749 0 
-0.486394 -0.525909 0 
-0.97539 -0.939809 0 
-1.07114 -1.13064 0 
-0.97793 -0.789074 0 
-0.63195 -0.783583 0 
-1.16744 -1.15166 0 
-1.17064 -0.808096 0 
-0.978134 -0.843101 0 
SCALARS mass double 1
LOOKUP_TABLE default
0.625
0.625
0.625
0.625
0.625
0.625
0.625
0.625
0.625
0.625
0.625
0.625
0.625
0.625
0.625
0.625
0.625
0.625
0.625
0.625
0.625
0.625
0.625
0.625
0.625
0.625
0.625
0.625
0.625
0.625
0.625
0.625
0.625
0.625
0.625
0.625
0.625
0.625
0.625
0.625
0.625
0.625
0.625
0.625
0.625
0.625
0.625
0.625
0.625
0.625
0.625
0.625
0.625
0.625
0.625
0.625
0.625
0.625
0.625
0.625
0.625
0.625
0.625
0.625
SCALARS volume double 1
LOOKUP_TABLE default
0.000600691
0.000616955
0.000600747
0.000638497
0.000628874
0.000646814
0.000602317
0.000624616
0.000611648
0.000636566
0.000596606
0.000629377
0.000630396
0.00063052
0.00061114
0.000627891
0.000587508
0.000614715
0.000570061
0.000640588
0.000608227
0.000638331
0.000597645
0.000604543
0.000634871
0.000631125
0.000604276
0.000636082
0.000640793
0.000614427
0.000590685
0.000630009
0.000588903
0.000605776
0.000632214
0.000612594
0.000641434
0.00064242
0.00061133
0.000608718
0.000627702
0.000642337
0.000625672
0.000622609
0.000619458
0.000625309
0.00066526
0.000612553
0.000620914
0.000656504
0.000626712
0.00060752
0.000626995
0.000629749
0.000625681
0.000640836
0.000632583
0.000619718
0.000612654
0.000629342
0.000614213
0.000621121
0.000625937
0.000631429
VECTORS momentum double
-0.430818 -0.791593 0 
-0.487041 -0.476357 0 
-0.336156 -0.450909 0 
-0.362671 -0.451653 0 
-0.241872 -0.533995 0 
-0.762849 -0.292532 0 
-0.484338 -0.782499 0 
-0.766705 -0.401007 0 
-0.271963 -0.50801 0 
-0.67047 -0.45479 0 
-0.1265 -0.496949 0 
-0.728058 -0.401077 0 
-0.366717 -0.332192 0 
-0.486194 -0.465994 0 
-0.633004 -0.109845 0 
-0.619239 -0.430842 0 
-0.441461 -0.719589 0 
-0.472938 -0.624004 0 
-0.893108 -0.684329 0 
-0.606987 -0.566428 0 
-0.366358 -0.564787 0 
-0.39268 -0.426513 0 
-0.44536 -0.40287 0 
-0.656996 -0.414577 0 
-0.18055 -0.725004 0 
-0.44608 -0.784377 0 
-0.535886 -0.482886 0 
-0.622358 -0.312643 0 
-0.44054 -0.370087 0 
-0.35929 -0.456513 0 
-0.395454 0.0353852 0 
-0.422897 -0.303317 0 
-0.73765 -0.551884 0 
-0.568693 -0.458588 0 
-0.381083 -0.540576 0 
-0.464015 -0.430115 0 
-0.50007 -0.415346 0 
-0.52232 -0.534407 0 
-0.77828 -0.475202 0 
-0.826679 -0.467446 0 
-0.278057 -0.493661 0 
-0.300824 -0.325857 0 
-0.567298 -0.376648 0 
-0.687242 -0.358073 0 
-0.49146 -0.567587 0 
-0.569778 -0.699292 0 
-0.703073 -0.30924 0 
-0.574081 -0.485453 0 
-0.347601 -0.413885 0 
-0.328913 -0.529873 0 
-0.484566 -0.571299 0 
-0.340197 -0.576197 0 
-0.40281 -0.569415 0 
-0.318695 -0.220261 0 
-0.463374 -0.417413 0 
-0.49753 -0.351718 0 
-0.303996 -0.328693 0 
-0.609619 -0.587381 0 
-0.66946 -0.706648 0 
-0.611206 -0.493171 0 
-0.394969 -0.489739 0 
-0.729652 -0.719787 0 
-0.73165 -0.50506 0 
-0.611334 -0.526938 0 
VECTORS body_force double
0 -9.81 0 
0 -9.81 0 
0 -9.81 0 
0 -9.81 0 
0 -9.81 0 
0 -9.81 0 
0 -9.81 0 
0 -9.81 0 
0 -9.81 0 
0 -9.81 0 
0 -9.81 0 
0 -9.81 0 
0 -9.81 0 
0 -9.81 0 
0 -9.81 0 
0 -9.81 0 
0 -9.81 0 
0 -9.81 0 
0 -9.81 0 
0 -9.81 0 
0 -9.81 0 
0 -9.81 0 
0 -9.81 0 
0 -9.81 0 
0 -9.81 0 
0 -9.81 0 
0 -9.81 0 
0 -9.81 0 
0 -9.81 0 
0 -9.81 0 
0 -9.81 0 
0 -9.81 0 
0 -9.81 0 
0 -9.81 0 
0 -9.81 0 
0 -9.81 0 
0 -9.81 0 
0 -9.81 0 
0 -9.81 0 
0 -9.81 0 
0 -9.81 0 
0 -9.81 0 
0 -9.81 0 
0 -9.81 0 
0 -9.81 0 
0 -9.81 0 
0 -9.81 0 
0 -9.81 0 
0 -9.81 0 
0 -9.81 0 
0 -9.81 0 
0 -9.81 0 
0 -9.81 0 
0 -9.81 0 
0 -9.81 0 
0 -9.81 0 
0 -9.81 0 
0 -9.81 0 
0 -9.81 0 
0 -9.81 0 
0 -9.81 0 
0 -9.81 0 
0 -9.81 0 
0 -9.81 0 
TENSORS cauchy_stress double
-5847.82 -3250.14 0
-3250.14 -1781.35 0
0 0 -2288.75

258.67 72.5181 0
72.5181 -2750.07 0
0 0 -747.419

-3488.57 -2929.65 0
-2929.65 -4122.55 0
0 0 -2283.34

1919.89 2528.92 0
2528.92 2188.85 0
0 0 1232.62

2652.73 -1259.14 0
-1259.14 -1464.49 0
0 0 356.472

7433.09 -64.5028 0
-64.5028 -835.686 0
0 0 1979.22

-6712.68 1593.26 0
1593.26 -396.534 0
0 0 -2132.77

2280.12 -5887.11 0
-5887.11 -2398.17 0
0 0 -35.416

-3465.48 1423.43 0
1423.43 -687.351 0
0 0 -1245.85

3785.89 353.338 0
353.338 -259.54 0
0 0 1057.91

-6618.5 4460.46 0
4460.46 -2322.71 0
0 0 -2682.36

3496.3 312.068 0
312.068 -2154.18 0
0 0 402.638

3671.24 -2731.46 0
-2731.46 -2018 0
0 0 495.972

1576.12 -1440.83 0
-1440.83 114.795 0
0 0 507.276

-1017.38 413.108 0
413.108 -3295.35 0
0 0 -1293.82

-2656.47 524.544 0
524.544 3544.06 0
0 0 266.276

-8903.11 -4829.97 0
-4829.97 -2993.42 0
0 0 -3568.96

1674.68 -3200.69 0
-3200.69 -4865.75 0
0 0 -957.321

-9643.09 -6158.92 0
-6158.92 -8050.76 0
0 0 -5308.16

3528.47 -2993 0
-2993 1209 0
0 0 1421.24

-5980.7 -2403.5 0
-2403.5 749.127 0
0 0 -1569.47

2331.56 -4312.91 0
-4312.91 1727.03 0
0 0 1217.58

-7083.61 -1005.51 0
-1005.51 -1523.17 0
0 0 -2582.04

-2064.77 2294.95 0
2294.95 -4334.93 0
0 0 -1919.91

4405.51 -2731.45 0
-2731.45 -1392.12 0
0 0 904.018

-551.776 -5135.42 0
-5135.42 2427.21 0
0 0 562.631

-6859.93 3698.46 0
3698.46 375.246 0
0 0 -1945.41

1749.81 -1833.87 0
-1833.87 1630.31 0
0 0 1014.03

3455.89 175.336 0
175.336 1343.07 0
0 0 1439.69

-2201.14 -432.668 0
-432.668 -1079.78 0
0 0 -984.276

-5315 1378 0
1378 -5544.28 0
0 0 -3257.78

817.548 88.0955 0
88.0955 717.428 0
0 0 460.493

-12641.2 -1372.61 0
-1372.61 1200.75 0
0 0 -3432.14

-5408.68 879.114 0
879.114 -599.178 0
0 0 -1802.36

260.615 -992.463 0
-992.463 1946.41 0
0 0 662.109

-3254.97 -146.917 0
-146.917 -600.651 0
0 0 -1156.69

1886.48 -1700.78 0
-1700.78 3104.65 0
0 0 1497.34

3007.64 -5005.96 0
-5005.96 2279.1 0
0 0 1586.02

-3167.83 -844.916 0
-844.916 -1085.14 0
0 0 -1275.89

-4302.03 4655.75 0
4655.75 -774.142 0
0 0 -1522.85

2832.68 -2188.5 0
-2188.5 -2003 0
0 0 248.902

2207.93 -7977.28 0
-7977.28 3053.74 0
0 0 1578.5

-3107.33 4940.06 0
4940.06 3313.98 0
0 0 61.9937

-4346.42 818.152 0
818.152 3609.18 0
0 0 -221.171

682.489 -847.218 0
-847.218 -2395.42 0
0 0 -513.878

824.959 134.967 0
134.967 -729.853 0
0 0 28.5317

8079.72 6268.23 0
6268.23 3925.36 0
0 0 3601.52

415.475 -1043.33 0
-1043.33 -4284.06 0
0 0 -1160.57

-214.969 -20.0831 0
-20.0831 -1046.24 0
0 0 -378.361

5959.68 1954.14 0
1954.14 3497.4 0
0 0 2837.12

709.685 537.021 0
537.021 -183.626 0
0 0 157.818

-1349.56 -572.314 0
-572.314 -4105.48 0
0 0 -1636.51

408.128 -1085.35 0
-1085.35 204.811 0
0 0 183.881

16.1143 -3712.37 0
-3712.37 1439.73 0
0 0 436.753

-620.994 -1405.68 0
-1405.68 830.435 0
0 0 62.8323

3305.94 887.804 0
887.804 1506.12 0
0 0 1443.62

1478.46 -2572.22 0
-2572.22 840.59 0
0 0 695.714

-621.933 -2480.97 0
-2480.97 -1010.35 0
0 0 -489.685

-3378.62 -2164.08 0
-2164.08 -458.046 0
0 0 -1151

712.801 251.395 0
251.395 618.491 0
0 0 399.387

2158.67 -1682.88 0
-1682.88 -5506.65 0
0 0 -1004.4

994.226 -702.291 0
-702.291 -2191.57 0
0 0 -359.202

-165.158 -2179.11 0
-2179.11 453.174 0
0 0 86.4047

419.129 663.825 0
663.825 1548.8 0
0 0 590.38

TENSORS velocity_gradient double
-1.14694 0.40786 0
-4.18436 1.01876 0
0 0 0

1.24757 0.0785365 0
-3.75503 -0.373282 0
0 0 0

1.81629 -0.567787 0
-0.859134 0.579175 0
0 0 0

1.70719 -0.138294 0
-1.65237 -1.36524 0
0 0 0

0.252941 0.428621 0
-2.16668 -1.83375 0
0 0 0

-0.326069 1.9912 0
-0.456218 -0.737253 0
0 0 0

-0.60269 -0.276486 0
-1.34587 -2.27406 0
0 0 0

-0.511184 0.0959239 0
-1.11137 -1.31968 0
0 0 0

0.38512 2.17251 0
-1.67706 -0.653137 0
0 0 0

0.794978 0.984725 0
-2.78763 -0.0574023 0
0 0 0

1.63257 0.566802 0
-3.59533 -0.654382 0
0 0 0

1.77724 1.02322 0
-3.4599 -0.236697 0
0 0 0

-0.0909226 -0.217264 0
-0.852246 0.706025 0
0 0 0

-0.511899 0.057884 0
0.894816 0.867322 0
0 0 0

-1.18951 0.000885769 0
0.796831 0.636471 0
0 0 0

-1.05417 0.230502 0
0.816383 0.89229 0
0 0 0

-0.133774 -7.07682 0
-2.5304 -1.16905 0
0 0 0

0.580502 -4.3666 0
-1.44765 1.70453 0
0 0 0

-3.02486 -6.2166 0
-5.61642 -0.250837 0
0 0 0

-1.1338 -3.94978 0
-2.39335 2.1096 0
0 0 0

-0.904221 -2.09211 0
-2.08403 0.234991 0
0 0 0

-0.86384 -0.0608305 0
-2.01066 -0.814314 0
0 0 0

-0.922739 -3.80136 0
-1.90611 2.0197 0
0 0 0

-0.63531 -3.73326 0
-2.3854 1.61401 0
0 0 0

0.942797 0.826584 0
-3.73015 -0.603604 0
0 0 0

1.29412 1.52895 0
-3.66148 -0.466319 0
0 0 0

0.164998 -3.02215 0
-3.45504 0.576751 0
0 0 0

0.476629 0.0990586 0
-2.9147 -0.487488 0
0 0 0

-0.611115 1.43154 0
0.880982 -0.460131 0
0 0 0

-0.817506 0.465477 0
0.850986 -0.600536 0
0 0 0

0.326456 1.16049 0
1.01725 -0.499525 0
0 0 0

0.106579 0.247208 0
1.0156 -0.642644 0
0 0 0

-3.05813 6.39222 0
-5.42637 1.18708 0
0 0 0

-0.668121 3.69574 0
-1.6421 0.101396 0
0 0 0

-0.773183 5.93593 0
-2.59192 0.621063 0
0 0 0

0.333509 4.52851 0
-1.8838 -0.144249 0
0 0 0

-0.80109 -0.938494 0
-1.65097 1.21788 0
0 0 0

-1.05306 -3.60993 0
-1.76568 1.39086 0
0 0 0

0.0719294 3.61119 0
-1.81785 0.0870391 0
0 0 0

-0.196058 2.27084 0
-0.53171 -0.365487 0
0 0 0

-0.7165 -2.78673 0
-2.23748 0.251581 0
0 0 0

0.855407 -2.3007 0
0.193113 -0.830642 0
0 0 0

-0.922096 0.655562 0
-1.03473 -1.48461 0
0 0 0

2.88294 -1.20841 0
3.02893 -1.56047 0
0 0 0

1.41128 -3.26035 0
1.82182 -1.92211 0
0 0 0

1.43415 -4.20183 0
4.44487 -2.54775 0
0 0 0

2.66699 -3.63771 0
2.97091 -2.26743 0
0 0 0

0.971659 -4.16332 0
5.07773 -2.03436 0
0 0 0

1.07379 0.393668 0
-0.167437 0.182368 0
0 0 0

0.965231 1.65289 0
-2.01898 -0.573299 0
0 0 0

0.0473886 0.234009 0
-1.62958 -0.551656 0
0 0 0

0.302884 1.00203 0
-1.73492 -0.868305 0
0 0 0

1.07445 2.55599 0
-1.5998 -0.342138 0
0 0 0

1.42836 1.76153 0
0.593742 -0.718354 0
0 0 0

1.99032 1.57774 0
0.718998 -1.11505 0
0 0 0

2.13666 1.48181 0
1.02661 -1.11453 0
0 0 0

0.738387 0.133298 0
0.115703 -1.84645 0
0 0 0

3.03405 -0.336364 0
2.31149 -1.54022 0
0 0 0

2.99679 1.12976 0
1.47924 -1.3071 0
0 0 0

3.24258 -0.258724 0
1.66423 -1.75351 0
0 0 0

3.0248 -0.359985 0
2.65516 -0.662389 0
0 0 0

0.412791 -0.282545 0
3.02263 0.414019 0
0 0 0

2.26585 -0.355522 0
1.72729 -0.363322 0
0 0 0

0.266211 -0.245178 0
1.87572 0.706393 0
0 0 0

SCALARS active double 1
LOOKUP_TABLE default
1
1
1
1
1
1
1
1
1
1
1
1
1
1
1
1
1
1
1
1
1
1
1
1
1
1
1
1
1
1
1
1
1
1
1
1
1
1
1
1
1
1
1
1
1
1
1
1
1
1
1
1
1
1
1
1
1
1
1
1
1
1
1
1
SCALARS extent double 1
LOOKUP_TABLE default
0.0125
0.0125
0.0125
0.0125
0.0125
0.0125
0.0125
0.0125
0.0125
0.0125
0.0125
0.0125
0.0125
0.0125
0.0125
0.0125
0.0125
0.0125
0.0125
0.0125
0.0125
0.0125
0.0125
0.0125
0.0125
0.0125
0.0125
0.0125
0.0125
0.0125
0.0125
0.0125
0.0125
0.0125
0.0125
0.0125
0.0125
0.0125
0.0125
0.0125
0.0125
0.0125
0.0125
0.0125
0.0125
0.0125
0.0125
0.0125
0.0125
0.0125
0.0125
0.0125
0.0125
0.0125
0.0125
0.0125
0.0125
0.0125
0.0125
0.0125
0.0125
0.0125
0.0125
0.0125
SCALARS pressure double 1
LOOKUP_TABLE default
3305.97
1079.6
3298.15
-1780.45
-514.903
-2858.88
3080.66
51.1564
1799.56
-1528.09
3874.52
-581.589
-716.404
-732.732
1868.85
-384.621
5155.16
1382.8
7667.34
-2052.9
2267.01
-1758.72
3729.61
2773.2
-1305.8
-812.69
2810.03
-1464.72
-2079.55
1421.73
4705.69
-665.156
4957.53
2603.4
-956.379
1670.77
-2162.83
-2290.92
1842.95
2199.67
-359.526
-2280.06
-89.5465
319.469
742.268
-41.2125
-5202.2
1676.39
546.522
-4098.07
-227.959
2363.85
-265.607
-630.865
-90.7577
-2085.22
-1004.92
707.322
1662.56
-576.893
1450.79
518.848
-124.807
-852.771
SCALARS density double 1
LOOKUP_TABLE default
1040.47
1013.04
1040.37
978.861
993.84
966.275
1037.66
1000.61
1021.83
981.83
1047.59
993.045
991.44
991.246
1022.68
995.395
1063.82
1016.73
1096.37
975.666
1027.58
979.116
1045.77
1033.84
984.452
990.295
1034.3
982.577
975.354
1017.21
1058.09
992.05
1061.3
1031.73
988.589
1020.25
974.38
972.883
1022.36
1026.75
995.695
973.01
998.926
1003.84
1008.95
999.506
939.482
1020.32
1006.58
952.013
997.268
1028.77
996.818
992.458
998.911
975.288
988.013
1008.52
1020.15
993.101
1017.56
1006.25
998.503
989.819
