# vtk DataFile Version 3.0
Frame: 9, Time: 0.15
ASCII
DATASET UNSTRUCTURED_GRID
POINTS 64 double
0.5125 0.49992 0 
0.5125 0.52492 0 
0.5375 0.49992 0 
0.5375 0.52492 0 
0.5125 0.54992 0 
0.5125 0.57492 0 
0.5375 0.54992 0 
0.5375 0.57492 0 
0.5125 0.59992 0 
0.5125 0.62492 0 
0.5375 0.59992 0 
0.5375 0.62492 0 
0.5125 0.64992 0 
0.5125 0.67492 0 
0.5375 0.64992 0 
0.5375 0.67492 0 
0.5625 0.49992 0 
0.5625 0.52492 0 
0.5875 0.49992 0 
0.5875 0.52492 0 
0.5625 0.54992 0 
0.5625 0.57492 0 
0.5875 0.54992 0 
0.5875 0.57492 0 
0.5625 0.59992 0 
0.5625 0.62492 0 
0.5875 0.59992 0 
0.5875 0.62492 0 
0.5625 0.64992 0 
0.5625 0.67492 0 
0.5875 0.64992 0 
0.5875 0.67492 0 
0.6125 0.49992 0 
0.6125 0.52492 0 
0.6375 0.49992 0 
0.6375 0.52492 0 
0.6125 0.54992 0 
0.6125 0.57492 0 
0.6375 0.54992 0 
0.6375 0.57492 0 
0.6125 0.59992 0 
0.6125 0.62492 0 
0.6375 0.59992 0 
0.6375 0.62492 0 
0.6125 0.64992 0 
0.6125 0.67492 0 
0.6375 0.64992 0 
0.6375 0.67492 0 
0.6625 0.49992 0 
0.6625 0.52492 0 
0.6875 0.49992 0 
0.6875 0.52492 0 
0.6625 0.54992 0 
0.6625 0.57492 0 
0.6875 0.54992 0 
0.6875 0.57492 0 
0.6625 0.59992 0 
0.6625 0.62492 0 
0.6875 0.59992 0 
0.6875 0.62492 0 
0.6625 0.64992 0 
0.6625 0.67492 0 
0.6875 0.64992 0 
0.6875 0.67492 0 
CELLS 64 128
1 0
1 1
1 2
1 3
1 4
1 5
1 6
1 7
1 8
1 9
1 10
1 11
1 12
1 13
1 14
1 15
1 16
1 17
1 18
1 19
1 20
1 21
1 22
1 23
1 24
1 25
1 26
1 27
1 28
1 29
1 30
1 31
1 32
1 33
1 34
1 35
1 36
1 37
1 38
1 39
1 40
1 41
1 42
1 43
1 44
1 45
1 46
1 47
1 48
1 49
1 50
1 51
1 52
1 53
1 54
1 55
1 56
1 57
1 58
1 59
1 60
1 61
1 62
1 63
CELL_TYPES 64
1
1
1
1
1
1
1
1
1
1
1
1
1
1
1
1
1
1
1
1
1
1
1
1
1
1
1
1
1
1
1
1
1
1
1
1
1
1
1
1
1
1
1
1
1
1
1
1
1
1
1
1
1
1
1
1
1
1
1
1
1
1
1
1
POINT_DATA 64
VECTORS displacement double
-2.79107e-17 -0.11258 0 
-7.36548e-18 -0.11258 0 
-3.17456e-17 -0.11258 0 
-1.68162e-17 -0.11258 0 
6.63126e-18 -0.11258 0 
1.28488e-17 -0.11258 0 
-2.6862e-18 -0.11258 0 
9.82434e-18 -0.11258 0 
3.69486e-17 -0.11258 0 
7.95555e-17 -0.11258 0 
3.88941e-17 -0.11258 0 
7.62205e-17 -0.11258 0 
1.01424e-16 -0.11258 0 
1.06764e-16 -0.11258 0 
9.99564e-17 -0.11258 0 
1.13254e-16 -0.11258 0 
-3.48959e-17 -0.11258 0 
-2.07387e-17 -0.11258 0 
-3.73616e-17 -0.11258 0 
-1.91332e-17 -0.11258 0 
-4.61219e-18 -0.11258 0 
1.2951e-17 -0.11258 0 
8.53292e-19 -0.11258 0 
2.22289e-17 -0.11258 0 
4.25425e-17 -0.11258 0 
7.4737e-17 -0.11258 0 
4.78936e-17 -0.11258 0 
7.51053e-17 -0.11258 0 
9.97306e-17 -0.11258 0 
1.18996e-16 -0.11258 0 
1.00747e-16 -0.11258 0 
1.23989e-16 -0.11258 0 
-4.18559e-17 -0.11258 0 
-1.84062e-17 -0.11258 0 
-4.8379e-17 -0.11258 0 
-1.85579e-17 -0.11258 0 
6.18522e-18 -0.11258 0 
3.21633e-17 -0.11258 0 
1.13836e-17 -0.11258 0 
4.27542e-17 -0.11258 0 
5.44219e-17 -0.11258 0 
7.62655e-17 -0.11258 0 
6.21274e-17 -0.11258 0 
7.82179e-17 -0.11258 0 
1.01715e-16 -0.11258 0 
1.2851e-16 -0.11258 0 
1.02635e-16 -0.11258 0 
1.3256e-16 -0.11258 0 
-5.41143e-17 -0.11258 0 
-2.20591e-17 -0.11258 0 
-5.90617e-17 -0.11258 0 
-2.89101e-17 -0.11258 0 
1.0203e-17 -0.11258 0 
4.74638e-17 -0.11258 0 
2.64334e-18 -0.11258 0 
4.62921e-17 -0.11258 0 
6.852e-17 -0.11258 0 
7.85776e-17 -0.11258 0 
7.35999e-17 -0.11258 0 
7.73448e-17 -0.11258 0 
1.02786e-16 -0.11258 0 
1.37802e-16 -0.11258 0 
1.02167e-16 -0.11258 0 
1.44238e-16 -0.11258 0 
VECTORS velocity double
-1.68207e-14 -1.48131 0 
1.57294e-14 -1.48131 0 
-6.9691e-15 -1.48131 0 
5.01129e-15 -1.48131 0 
9.3067e-15 -1.48131 0 
-7.04216e-15 -1.48131 0 
2.07867e-15 -1.48131 0 
-3.45e-15 -1.48131 0 
-8.80623e-15 -1.48131 0 
1.2731e-15 -1.48131 0 
-3.05746e-15 -1.48131 0 
1.23445e-17 -1.48131 0 
9.27792e-16 -1.48131 0 
5.33052e-15 -1.48131 0 
-3.40939e-16 -1.48131 0 
2.77576e-15 -1.48131 0 
-1.45487e-15 -1.48131 0 
-1.6175e-16 -1.48131 0 
-2.77966e-16 -1.48131 0 
2.10254e-16 -1.48131 0 
-1.27847e-15 -1.48131 0 
-1.44343e-15 -1.48131 0 
-7.64718e-16 -1.48131 0 
-1.02244e-15 -1.48131 0 
-1.81606e-16 -1.48131 0 
-1.93535e-16 -1.48131 0 
-1.78682e-16 -1.48131 0 
6.55456e-16 -1.48131 0 
-4.445e-16 -1.48131 0 
1.89045e-15 -1.48131 0 
6.17108e-16 -1.48131 0 
2.67458e-15 -1.48131 0 
8.49818e-16 -1.48131 0 
2.45347e-16 -1.48131 0 
1.92848e-15 -1.48131 0 
-5.64716e-17 -1.48131 0 
-4.45634e-16 -1.48131 0 
-4.93312e-16 -1.48131 0 
-3.21212e-16 -1.48131 0 
1.43941e-16 -1.48131 0 
-3.10961e-17 -1.48131 0 
1.40395e-15 -1.48131 0 
2.61152e-16 -1.48131 0 
2.05196e-15 -1.48131 0 
1.67291e-15 -1.48131 0 
3.29728e-15 -1.48131 0 
2.72292e-15 -1.48131 0 
3.75855e-15 -1.48131 0 
6.82242e-15 -1.48131 0 
-5.5756e-15 -1.48131 0 
1.55316e-14 -1.48131 0 
-1.6312e-14 -1.48131 0 
-3.89961e-15 -1.48131 0 
2.65435e-15 -1.48131 0 
-1.11808e-14 -1.48131 0 
7.03792e-15 -1.48131 0 
3.79993e-15 -1.48131 0 
1.95399e-15 -1.48131 0 
1.05852e-14 -1.48131 0 
1.11006e-15 -1.48131 0 
2.93917e-15 -1.48131 0 
2.66953e-15 -1.48131 0 
2.32167e-15 -1.48131 0 
3.02268e-17 -1.48131 0 
SCALARS mass double 1
LOOKUP_TABLE default
0.625
0.625
0.625
0.625
0.625
0.625
0.625
0.625
0.625
0.625
0.625
0.625
0.625
0.625
0.625
0.625
0.625
0.625
0.625
0.625
0.625
0.625
0.625
0.625
0.625
0.625
0.625
0.625
0.625
0.625
0.625
0.625
0.625
0.625
0.625
0.625
0.625
0.625
0.625
0.625
0.625
0.625
0.625
0.625
0.625
0.625
0.625
0.625
0.625
0.625
0.625
0.625
0.625
0.625
0.625
0.625
0.625
0.625
0.625
0.625
0.625
0.625
0.625
0.625
SCALARS volume double 1
LOOKUP_TABLE default
0.000625
0.000625
0.000625
0.000625
0.000625
0.000625
0.000625
0.000625
0.000625
0.000625
0.000625
0.000625
0.000625
0.000625
0.000625
0.000625
0.000625
0.000625
0.000625
0.000625
0.000625
0.000625
0.000625
0.000625
0.000625
0.000625
0.000625
0.000625
0.000625
0.000625
0.000625
0.000625
0.000625
0.000625
0.000625
0.000625
0.000625
0.000625
0.000625
0.000625
0.000625
0.000625
0.000625
0.000625
0.000625
0.000625
0.000625
0.000625
0.000625
0.000625
0.000625
0.000625
0.000625
0.000625
0.000625
0.000625
0.000625
0.000625
0.000625
0.000625
0.000625
0.000625
0.000625
0.000625
VECTORS momentum double
-1.05129e-14 -0.925819 0 
9.83086e-15 -0.925819 0 
-4.35569e-15 -0.925819 0 
3.13206e-15 -0.925819 0 
5.81669e-15 -0.925819 0 
-4.40135e-15 -0.925819 0 
1.29917e-15 -0.925819 0 
-2.15625e-15 -0.925819 0 
-5.50389e-15 -0.925819 0 
7.95685e-16 -0.925819 0 
-1.91091e-15 -0.925819 0 
7.71528e-18 -0.925819 0 
5.7987e-16 -0.925819 0 
3.33158e-15 -0.925819 0 
-2.13087e-16 -0.925819 0 
1.73485e-15 -0.925819 0 
-9.09295e-16 -0.925819 0 
-1.01094e-16 -0.925819 0 
-1.73729e-16 -0.925819 0 
1.31409e-16 -0.925819 0 
-7.99041e-16 -0.925819 0 
-9.02143e-16 -0.925819 0 
-4.77949e-16 -0.925819 0 
-6.39022e-16 -0.925819 0 
-1.13504e-16 -0.925819 0 
-1.2096e-16 -0.925819 0 
-1.11676e-16 -0.925819 0 
4.0966e-16 -0.925819 0 
-2.77813e-16 -0.925819 0 
1.18153e-15 -0.925819 0 
3.85692e-16 -0.925819 0 
1.67161e-15 -0.925819 0 
5.31136e-16 -0.925819 0 
1.53342e-16 -0.925819 0 
1.2053e-15 -0.925819 0 
-3.52947e-17 -0.925819 0 
-2.78521e-16 -0.925819 0 
-3.0832e-16 -0.925819 0 
-2.00758e-16 -0.925819 0 
8.99633e-17 -0.925819 0 
-1.94351e-17 -0.925819 0 
8.77472e-16 -0.925819 0 
1.6322e-16 -0.925819 0 
1.28247e-15 -0.925819 0 
1.04557e-15 -0.925819 0 
2.0608e-15 -0.925819 0 
1.70182e-15 -0.925819 0 
2.34909e-15 -0.925819 0 
4.26401e-15 -0.925819 0 
-3.48475e-15 -0.925819 0 
9.70728e-15 -0.925819 0 
-1.0195e-14 -0.925819 0 
-2.43726e-15 -0.925819 0 
1.65897e-15 -0.925819 0 
-6.98802e-15 -0.925819 0 
4.3987e-15 -0.925819 0 
2.37496e-15 -0.925819 0 
1.22125e-15 -0.925819 0 
6.61578e-15 -0.925819 0 
6.93787e-16 -0.925819 0 
1.83698e-15 -0.925819 0 
1.66846e-15 -0.925819 0 
1.45104e-15 -0.925819 0 
1.88917e-17 -0.925819 0 
VECTORS body_force double
0 -9.81 0 
0 -9.81 0 
0 -9.81 0 
0 -9.81 0 
0 -9.81 0 
0 -9.81 0 
0 -9.81 0 
0 -9.81 0 
0 -9.81 0 
0 -9.81 0 
0 -9.81 0 
0 -9.81 0 
0 -9.81 0 
0 -9.81 0 
0 -9.81 0 
0 -9.81 0 
0 -9.81 0 
0 -9.81 0 
0 -9.81 0 
0 -9.81 0 
0 -9.81 0 
0 -9.81 0 
0 -9.81 0 
0 -9.81 0 
0 -9.81 0 
0 -9.81 0 
0 -9.81 0 
0 -9.81 0 
0 -9.81 0 
0 -9.81 0 
0 -9.81 0 
0 -9.81 0 
0 -9.81 0 
0 -9.81 0 
0 -9.81 0 
0 -9.81 0 
0 -9.81 0 
0 -9.81 0 
0 -9.81 0 
0 -9.81 0 
0 -9.81 0 
0 -9.81 0 
0 -9.81 0 
0 -9.81 0 
0 -9.81 0 
0 -9.81 0 
0 -9.81 0 
0 -9.81 0 
0 -9.81 0 
0 -9.81 0 
0 -9.81 0 
0 -9.81 0 
0 -9.81 0 
0 -9.81 0 
0 -9.81 0 
0 -9.81 0 
0 -9.81 0 
0 -9.81 0 
0 -9.81 0 
0 -9.81 0 
0 -9.81 0 
0 -9.81 0 
0 -9.81 0 
0 -9.81 0 
TENSORS cauchy_stress double
-1.66697e-11 3.39745e-11 0
3.39745e-11 4.36781e-13 0
0 0 -4.86987e-12

2.23239e-11 5.08501e-12 0
5.08501e-12 1.49019e-10 0
0 0 5.1403e-11

2.25028e-12 2.11308e-11 0
2.11308e-11 4.45834e-11 0
0 0 1.40501e-11

-1.09427e-11 9.30128e-12 0
9.30128e-12 7.13971e-11 0
0 0 1.81363e-11

3.41827e-11 -3.53412e-11 0
-3.53412e-11 1.75323e-10 0
0 0 6.28518e-11

-2.83208e-11 2.49585e-12 0
2.49585e-12 -3.50618e-11 0
0 0 -1.90148e-11

-1.90666e-12 -2.1965e-11 0
-2.1965e-11 9.11148e-11 0
0 0 2.67624e-11

-2.68477e-11 -6.4282e-12 0
-6.4282e-12 -3.16244e-11 0
0 0 -1.75416e-11

-1.03384e-10 1.62821e-11 0
1.62821e-11 -2.61184e-10 0
0 0 -1.0937e-10

-6.0317e-12 2.82067e-11 0
2.82067e-11 2.01319e-11 0
0 0 4.23005e-12

-7.93247e-11 1.77215e-11 0
1.77215e-11 -2.05045e-10 0
0 0 -8.5311e-11

3.44611e-13 1.77695e-11 0
1.77695e-11 3.50099e-11 0
0 0 1.06064e-11

9.75913e-11 -1.32572e-11 0
-1.32572e-11 2.42768e-10 0
0 0 1.02108e-10

9.77361e-12 -1.80891e-11 0
-1.80891e-11 -4.37644e-11 0
0 0 -1.01972e-11

1.03735e-10 -2.04332e-12 0
-2.04332e-12 2.57104e-10 0
0 0 1.08252e-10

2.20074e-11 -1.4724e-12 0
-1.4724e-12 -1.52189e-11 0
0 0 2.03656e-12

-8.82769e-13 -8.13423e-12 0
-8.13423e-12 2.32292e-11 0
0 0 6.70392e-12

3.85684e-11 -7.97724e-12 0
-7.97724e-12 7.35259e-11 0
0 0 3.36283e-11

2.92909e-12 -8.02165e-12 0
-8.02165e-12 3.21235e-11 0
0 0 1.05158e-11

6.04756e-11 -3.57356e-12 0
-3.57356e-12 1.24643e-10 0
0 0 5.55354e-11

5.74243e-11 -2.5862e-12 0
-2.5862e-12 7.79339e-11 0
0 0 4.06075e-11

2.46543e-11 9.09272e-12 0
9.09272e-12 -3.7631e-11 0
0 0 -3.89302e-12

7.14536e-11 6.02006e-12 0
6.02006e-12 1.10669e-10 0
0 0 5.46367e-11

1.72884e-11 2.48476e-12 0
2.48476e-12 -5.48181e-11 0
0 0 -1.12589e-11

-6.34188e-11 8.67967e-12 0
8.67967e-12 -2.02861e-10 0
0 0 -7.98839e-11

2.9637e-11 4.78035e-12 0
4.78035e-12 6.53762e-11 0
0 0 2.85039e-11

-6.72935e-11 4.44448e-12 0
4.44448e-12 -2.11902e-10 0
0 0 -8.37586e-11

3.15906e-11 -8.15839e-13 0
-8.15839e-13 6.99345e-11 0
0 0 3.04575e-11

1.2648e-10 -8.25965e-12 0
-8.25965e-12 2.84697e-10 0
0 0 1.23353e-10

2.82412e-11 -1.30313e-11 0
-1.30313e-11 1.46837e-11 0
0 0 1.28775e-11

1.32001e-10 -3.62461e-12 0
-3.62461e-12 2.9758e-10 0
0 0 1.28874e-10

1.88961e-11 3.62512e-12 0
3.62512e-12 -7.12147e-12 0
0 0 3.5324e-12

-1.08184e-11 7.53253e-12 0
7.53253e-12 4.16605e-11 0
0 0 9.25262e-12

6.47209e-11 2.55484e-12 0
2.55484e-12 1.52571e-10 0
0 0 6.51874e-11

-8.06097e-12 1.82342e-11 0
1.82342e-11 4.80944e-11 0
0 0 1.201e-11

3.82997e-11 5.07996e-12 0
5.07996e-12 9.09211e-11 0
0 0 3.87662e-11

7.76042e-11 1.76723e-12 0
1.76723e-12 1.2776e-10 0
0 0 6.16092e-11

1.18541e-11 -9.11222e-12 0
-9.11222e-12 -8.0965e-11 0
0 0 -2.07333e-11

4.98656e-11 1.16401e-11 0
1.16401e-11 6.30364e-11 0
0 0 3.38706e-11

2.60559e-11 -7.63041e-12 0
-7.63041e-12 -4.78275e-11 0
0 0 -6.53148e-12

-5.71418e-11 -5.89121e-12 0
-5.89121e-12 -2.12361e-10 0
0 0 -8.08508e-11

3.72474e-11 5.1861e-12 0
5.1861e-12 6.6887e-11 0
0 0 3.12403e-11

-5.28776e-11 -9.01405e-12 0
-9.01405e-12 -2.02411e-10 0
0 0 -7.65866e-11

2.72234e-11 2.22569e-12 0
2.22569e-12 4.34976e-11 0
0 0 2.12163e-11

1.37112e-10 1.13145e-12 0
1.13145e-12 3.10492e-10 0
0 0 1.34281e-10

2.15343e-11 1.03283e-12 0
1.03283e-12 8.71658e-12 0
0 0 9.07526e-12

1.24575e-10 3.06963e-12 0
3.06963e-12 2.8124e-10 0
0 0 1.21745e-10

1.73421e-11 1.03806e-11 0
1.03806e-11 -1.06513e-12 0
0 0 4.88311e-12

-1.08123e-11 -2.14564e-11 0
-2.14564e-11 2.55145e-11 0
0 0 4.41068e-12

-4.77912e-12 -1.28736e-11 0
-1.28736e-11 5.91147e-11 0
0 0 1.63007e-11

-1.94568e-11 -3.40515e-11 0
-3.40515e-11 5.34396e-12 0
0 0 -4.23385e-12

2.51985e-11 -5.19859e-12 0
-5.19859e-12 1.29063e-10 0
0 0 4.62783e-11

-8.96208e-13 3.09945e-11 0
3.09945e-11 7.54435e-11 0
0 0 2.23642e-11

-2.70442e-11 5.0515e-12 0
5.0515e-12 -5.10857e-11 0
0 0 -2.3439e-11

2.77748e-11 3.41662e-11 0
3.41662e-11 1.42342e-10 0
0 0 5.10352e-11

-1.23397e-11 7.25212e-12 0
7.25212e-12 -1.6775e-11 0
0 0 -8.73438e-12

-7.29301e-11 -8.16574e-12 0
-8.16574e-12 -2.22271e-10 0
0 0 -8.85604e-11

9.90642e-12 -8.09994e-12 0
-8.09994e-12 3.57589e-11 0
0 0 1.36996e-11

-9.3868e-11 -1.04039e-11 0
-1.04039e-11 -2.71127e-10 0
0 0 -1.09498e-10

1.66942e-12 -2.40422e-11 0
-2.40422e-11 1.65392e-11 0
0 0 5.46258e-12

1.05457e-10 2.47298e-12 0
2.47298e-12 2.52409e-10 0
0 0 1.0736e-10

2.09272e-11 3.95007e-12 0
3.95007e-12 -1.71763e-11 0
0 0 1.12525e-12

1.00296e-10 1.86388e-11 0
1.86388e-11 2.40367e-10 0
0 0 1.02199e-10

2.78144e-12 2.04453e-11 0
2.04453e-11 -5.95164e-11 0
0 0 -1.70205e-11

TENSORS velocity_gradient double
4.61972e-14 1.28134e-13 0
-1.55875e-13 -9.90319e-14 0
0 0 0

-1.22683e-14 1.52446e-13 0
-1.27898e-13 -2.34479e-13 0
0 0 0

4.61972e-14 7.76987e-14 0
-1.74971e-13 -5.41789e-14 0
0 0 0

-1.22683e-14 9.13034e-14 0
-1.20792e-13 -1.91847e-13 0
0 0 0

-5.18509e-14 -4.13547e-14 0
-8.26006e-14 -1.25233e-13 0
0 0 0

1.42274e-14 -1.64149e-13 0
-4.26326e-14 -1.27898e-13 0
0 0 0

-5.18509e-14 -1.6258e-14 0
-8.43769e-14 -1.05693e-13 0
0 0 0

1.42274e-14 -8.44103e-14 0
-4.26326e-14 -7.81597e-14 0
0 0 0

7.25821e-14 9.65155e-15 0
-1.11022e-14 -2.10054e-13 0
0 0 0

2.61363e-14 1.19774e-13 0
-3.55271e-15 1.52767e-13 0
0 0 0

7.25821e-14 3.85364e-15 0
-2.04281e-14 -1.90958e-13 0
0 0 0

2.61363e-14 5.97788e-14 0
-7.10543e-15 1.49214e-13 0
0 0 0

-2.68705e-14 8.52921e-14 0
-1.33227e-15 2.18936e-13 0
0 0 0

-4.56285e-14 6.3444e-14 0
2.13163e-14 -1.27898e-13 0
0 0 0

-2.68705e-14 5.32504e-14 0
1.77636e-14 2.59348e-13 0
0 0 0

-4.56285e-14 4.91139e-14 0
2.13163e-14 -1.49214e-13 0
0 0 0

3.89664e-14 3.58559e-14 0
-2.17604e-14 -6.43929e-14 0
0 0 0

3.64126e-15 4.27239e-14 0
-3.01981e-14 -1.72307e-13 0
0 0 0

3.89664e-14 2.60548e-15 0
-3.4639e-14 -5.59552e-14 0
0 0 0

3.64126e-15 6.70728e-15 0
-4.9738e-14 -1.63425e-13 0
0 0 0

-2.26354e-14 -2.23793e-15 0
-1.02141e-14 -8.83738e-14 0
0 0 0

-1.17789e-15 -3.07264e-14 0
-3.55271e-15 -3.19744e-14 0
0 0 0

-2.26354e-14 7.05409e-16 0
-3.55271e-14 -7.10543e-14 0
0 0 0

-1.17789e-15 -3.09745e-15 0
-1.42109e-14 -4.26326e-14 0
0 0 0

2.21206e-14 6.10828e-15 0
4.44089e-16 -1.77192e-13 0
0 0 0

2.41963e-14 2.94472e-14 0
1.95399e-14 1.9007e-13 0
0 0 0

2.21206e-14 1.64155e-14 0
0 -1.56319e-13 0
0 0 0

2.41963e-14 2.87791e-14 0
1.42109e-14 1.84741e-13 0
0 0 0

2.22373e-14 3.43137e-14 0
2.93099e-14 2.70894e-13 0
0 0 0

1.39517e-14 3.73971e-14 0
8.88178e-15 -1.04805e-13 0
0 0 0

2.22373e-14 2.84819e-14 0
1.15463e-14 2.53131e-13 0
0 0 0

1.39517e-14 2.82936e-14 0
1.42109e-14 -1.42109e-13 0
0 0 0

3.26064e-14 -2.83158e-14 0
-1.59872e-14 -3.01981e-14 0
0 0 0

-4.3446e-17 -2.83023e-14 0
1.24345e-14 -1.29674e-13 0
0 0 0

3.26064e-14 -5.69078e-14 0
-4.44089e-15 -3.9968e-14 0
0 0 0

-4.3446e-17 -6.23047e-14 0
1.42109e-14 -1.27898e-13 0
0 0 0

-2.39756e-14 5.31645e-15 0
3.55271e-14 -6.39488e-14 0
0 0 0

1.44519e-15 2.66177e-14 0
8.88178e-15 -4.79616e-14 0
0 0 0

-2.39756e-14 1.15952e-14 0
1.77636e-14 -8.17124e-14 0
0 0 0

1.44519e-15 5.84192e-14 0
1.42109e-14 -8.52651e-14 0
0 0 0

2.77989e-14 2.65744e-14 0
-1.37668e-14 -1.55875e-13 0
0 0 0

2.74544e-14 2.65469e-14 0
-3.19744e-14 1.66978e-13 0
0 0 0

2.77989e-14 3.6585e-14 0
-1.24345e-14 -1.82965e-13 0
0 0 0

2.74544e-14 2.27506e-14 0
-2.84217e-14 1.7053e-13 0
0 0 0

2.26375e-14 2.16268e-14 0
-4.39648e-14 2.54463e-13 0
0 0 0

1.28192e-14 1.85093e-14 0
-2.30926e-14 -1.36779e-13 0
0 0 0

2.26375e-14 1.37483e-14 0
-4.70735e-14 2.51354e-13 0
0 0 0

1.28192e-14 8.04436e-15 0
-2.84217e-14 -1.20792e-13 0
0 0 0

3.02334e-14 -9.22321e-14 0
1.55875e-13 -5.01821e-14 0
0 0 0

-2.00063e-14 -1.0579e-13 0
8.34888e-14 -1.72307e-13 0
0 0 0

3.02334e-14 -1.34289e-13 0
1.45661e-13 -1.1724e-13 0
0 0 0

-2.00063e-14 -1.58757e-13 0
8.52651e-14 -2.20268e-13 0
0 0 0

-5.18825e-14 3.0433e-14 0
4.79616e-14 -7.99361e-14 0
0 0 0

1.96051e-14 1.16745e-13 0
-3.55271e-15 -8.17124e-14 0
0 0 0

-5.18825e-14 6.183e-14 0
4.08562e-14 -1.5099e-13 0
0 0 0

1.96051e-14 2.01597e-13 0
0 -9.9476e-14 0
0 0 0

8.19683e-14 3.90398e-14 0
-3.64153e-14 -2.06946e-13 0
0 0 0

3.41211e-14 -1.01955e-14 0
-3.01981e-14 1.54543e-13 0
0 0 0

8.19683e-14 3.39389e-14 0
-1.42109e-14 -2.20268e-13 0
0 0 0

3.41211e-14 -7.22914e-14 0
-5.68434e-14 1.27898e-13 0
0 0 0

-2.1332e-14 -7.95324e-15 0
-5.86198e-14 2.54019e-13 0
0 0 0

-4.42297e-14 -6.53252e-15 0
-6.75016e-14 -1.38556e-13 0
0 0 0

-2.1332e-14 -4.34779e-14 0
-5.9508e-14 2.10498e-13 0
0 0 0

-4.42297e-14 -2.52213e-14 0
-6.39488e-14 -1.49214e-13 0
0 0 0

SCALARS active double 1
LOOKUP_TABLE default
1
1
1
1
1
1
1
1
1
1
1
1
1
1
1
1
1
1
1
1
1
1
1
1
1
1
1
1
1
1
1
1
1
1
1
1
1
1
1
1
1
1
1
1
1
1
1
1
1
1
1
1
1
1
1
1
1
1
1
1
1
1
1
1
SCALARS extent double 1
LOOKUP_TABLE default
0.0125
0.0125
0.0125
0.0125
0.0125
0.0125
0.0125
0.0125
0.0125
0.0125
0.0125
0.0125
0.0125
0.0125
0.0125
0.0125
0.0125
0.0125
0.0125
0.0125
0.0125
0.0125
0.0125
0.0125
0.0125
0.0125
0.0125
0.0125
0.0125
0.0125
0.0125
0.0125
0.0125
0.0125
0.0125
0.0125
0.0125
0.0125
0.0125
0.0125
0.0125
0.0125
0.0125
0.0125
0.0125
0.0125
0.0125
0.0125
0.0125
0.0125
0.0125
0.0125
0.0125
0.0125
0.0125
0.0125
0.0125
0.0125
0.0125
0.0125
0.0125
0.0125
0.0125
0.0125
SCALARS pressure double 1
LOOKUP_TABLE default
7.03426e-12
-7.42487e-11
-2.02946e-11
-2.61969e-11
-9.07859e-11
2.74658e-11
-3.86569e-11
2.53379e-11
1.57979e-10
-6.11007e-12
1.23227e-10
-1.53203e-11
-1.47489e-10
1.47293e-11
-1.56363e-10
-2.9417e-12
-9.68344e-12
-4.85742e-11
-1.51894e-11
-8.02179e-11
-5.86553e-11
5.62325e-12
-7.89197e-11
1.62629e-11
1.15388e-10
-4.11724e-11
1.20985e-10
-4.39942e-11
-1.78177e-10
-1.86008e-11
-1.86152e-10
-5.10235e-12
-1.33649e-11
-9.41596e-11
-1.73478e-11
-5.59957e-11
-8.89911e-11
2.9948e-11
-4.89242e-11
9.43436e-12
1.16785e-10
-4.51249e-11
1.10625e-10
-3.06458e-11
-1.93961e-10
-1.31087e-11
-1.75853e-10
-7.05337e-12
-6.37098e-12
-2.35454e-11
6.11556e-12
-6.68464e-11
-3.23038e-11
3.38563e-11
-7.37175e-11
1.26163e-11
1.27921e-10
-1.97883e-11
1.58164e-10
-7.8904e-12
-1.55075e-10
-1.62536e-12
-1.47621e-10
2.45852e-11
SCALARS density double 1
LOOKUP_TABLE default
1000
1000
1000
1000
1000
1000
1000
1000
1000
1000
1000
1000
1000
1000
1000
1000
1000
1000
1000
1000
1000
1000
1000
1000
1000
1000
1000
1000
1000
1000
1000
1000
1000
1000
1000
1000
1000
1000
1000
1000
1000
1000
1000
1000
1000
1000
1000
1000
1000
1000
1000
1000
1000
1000
1000
1000
1000
1000
1000
1000
1000
1000
1000
1000
