# vtk DataFile Version 3.0
Frame: 46, Time: 0.767
ASCII
DATASET UNSTRUCTURED_GRID
POINTS 64 double
0.575245 0.438095 0 
0.593299 0.418972 0 
0.555834 0.421048 0 
0.572982 0.400519 0 
0.608863 0.399042 0 
0.62712 0.380157 0 
0.589349 0.381447 0 
0.60821 0.362962 0 
0.646352 0.362651 0 
0.662564 0.342425 0 
0.626632 0.345061 0 
0.642739 0.326148 0 
0.681673 0.325225 0 
0.700705 0.309519 0 
0.662199 0.308859 0 
0.680504 0.290626 0 
0.537072 0.404793 0 
0.553106 0.384291 0 
0.518652 0.388593 0 
0.535894 0.367302 0 
0.570936 0.365252 0 
0.589607 0.347193 0 
0.55354 0.347633 0 
0.571055 0.329759 0 
0.607331 0.328095 0 
0.624086 0.309275 0 
0.589015 0.310883 0 
0.606484 0.292053 0 
0.643167 0.29127 0 
0.663199 0.272937 0 
0.624602 0.274129 0 
0.643821 0.255803 0 
0.500481 0.370689 0 
0.516419 0.349629 0 
0.483279 0.352199 0 
0.498305 0.331467 0 
0.535075 0.331643 0 
0.552672 0.311159 0 
0.517715 0.313765 0 
0.534009 0.294714 0 
0.570666 0.292476 0 
0.588961 0.274298 0 
0.551965 0.275243 0 
0.569839 0.257602 0 
0.606634 0.254877 0 
0.626349 0.237408 0 
0.587304 0.237962 0 
0.608618 0.220191 0 
0.465885 0.335604 0 
0.480808 0.314887 0 
0.444613 0.318408 0 
0.46064 0.297147 0 
0.499111 0.297112 0 
0.517198 0.276437 0 
0.479771 0.278121 0 
0.498509 0.257532 0 
0.53472 0.257296 0 
0.552128 0.238193 0 
0.515489 0.240284 0 
0.533828 0.220675 0 
0.57125 0.219573 0 
0.591288 0.202093 0 
0.553553 0.201807 0 
0.573437 0.184839 0 
CELLS 64 128
1 0
1 1
1 2
1 3
1 4
1 5
1 6
1 7
1 8
1 9
1 10
1 11
1 12
1 13
1 14
1 15
1 16
1 17
1 18
1 19
1 20
1 21
1 22
1 23
1 24
1 25
1 26
1 27
1 28
1 29
1 30
1 31
1 32
1 33
1 34
1 35
1 36
1 37
1 38
1 39
1 40
1 41
1 42
1 43
1 44
1 45
1 46
1 47
1 48
1 49
1 50
1 51
1 52
1 53
1 54
1 55
1 56
1 57
1 58
1 59
1 60
1 61
1 62
1 63
CELL_TYPES 64
1
1
1
1
1
1
1
1
1
1
1
1
1
1
1
1
1
1
1
1
1
1
1
1
1
1
1
1
1
1
1
1
1
1
1
1
1
1
1
1
1
1
1
1
1
1
1
1
1
1
1
1
1
1
1
1
1
1
1
1
1
1
1
1
POINT_DATA 64
VECTORS displacement double
0.0627452 -0.174405 0 
0.0807993 -0.218528 0 
0.0183339 -0.191452 0 
0.0354822 -0.236981 0 
0.0963631 -0.263458 0 
0.11462 -0.307343 0 
0.0518487 -0.281053 0 
0.0707097 -0.324538 0 
0.133852 -0.349849 0 
0.150064 -0.395075 0 
0.0891316 -0.367439 0 
0.105239 -0.411352 0 
0.169173 -0.437275 0 
0.188205 -0.477981 0 
0.124699 -0.453641 0 
0.143004 -0.496874 0 
-0.0254278 -0.207707 0 
-0.00939445 -0.253209 0 
-0.0688481 -0.223907 0 
-0.051606 -0.270198 0 
0.0084363 -0.297248 0 
0.027107 -0.340307 0 
-0.0339597 -0.314867 0 
-0.016445 -0.357741 0 
0.0448309 -0.384405 0 
0.0615859 -0.428225 0 
0.00151542 -0.401617 0 
0.018984 -0.445447 0 
0.080667 -0.47123 0 
0.100699 -0.514563 0 
0.0371025 -0.488371 0 
0.0563211 -0.531697 0 
-0.112019 -0.241811 0 
-0.0960815 -0.287871 0 
-0.154221 -0.260301 0 
-0.139195 -0.306033 0 
-0.0774245 -0.330857 0 
-0.0598275 -0.376341 0 
-0.119785 -0.348735 0 
-0.103491 -0.392786 0 
-0.0418341 -0.420024 0 
-0.0235385 -0.463202 0 
-0.0855348 -0.437257 0 
-0.0676607 -0.479898 0 
-0.0058665 -0.507623 0 
0.0138491 -0.550092 0 
-0.0501957 -0.524538 0 
-0.0288823 -0.567309 0 
-0.196615 -0.276896 0 
-0.181692 -0.322613 0 
-0.242887 -0.294092 0 
-0.22686 -0.340353 0 
-0.163389 -0.365388 0 
-0.145302 -0.411063 0 
-0.207729 -0.384379 0 
-0.188991 -0.429968 0 
-0.12778 -0.455204 0 
-0.110372 -0.499307 0 
-0.172011 -0.472216 0 
-0.153672 -0.516825 0 
-0.0912501 -0.542927 0 
-0.0712123 -0.585407 0 
-0.133947 -0.560693 0 
-0.114063 -0.602661 0 
VECTORS velocity double
-1.98544 -1.22282 0 
-1.9264 -1.07368 0 
-2.02259 -1.45718 0 
-1.3701 -1.23961 0 
-1.77301 -1.23372 0 
-1.75396 -1.09429 0 
-1.7646 -1.32453 0 
-1.51298 -1.29492 0 
-1.55128 -0.833237 0 
-1.53739 -1.20251 0 
-1.30139 -1.17082 0 
-1.54484 -1.45191 0 
-1.50005 -0.822041 0 
-1.39262 -0.801053 0 
-0.817305 -1.08918 0 
-1.47881 -0.868278 0 
-1.65668 -1.01925 0 
-1.50408 -1.55518 0 
-1.79074 -1.3964 0 
-1.49536 -1.01547 0 
-1.55377 -1.478 0 
-1.19766 -1.43899 0 
-1.763 -1.2385 0 
-1.6936 -1.27624 0 
-1.09191 -1.0754 0 
-1.37149 -1.06626 0 
-1.33324 -1.37433 0 
-1.30734 -1.08699 0 
-1.45924 -1.00773 0 
-1.04099 -1.2355 0 
-1.33554 -0.876848 0 
-1.18265 -0.782969 0 
-1.5834 -1.5096 0 
-0.851801 -1.32928 0 
-1.58314 -1.35409 0 
-1.25202 -1.1972 0 
-1.04909 -1.65163 0 
-1.22822 -1.44486 0 
-1.65843 -1.47782 0 
-1.28341 -1.05939 0 
-0.807788 -1.24823 0 
-1.37142 -1.25083 0 
-1.10923 -1.5061 0 
-1.69251 -1.08523 0 
-0.949365 -1.49739 0 
-0.408582 -1.25133 0 
-0.760833 -1.14926 0 
-0.856694 -1.12004 0 
-1.11521 -1.49254 0 
-1.29355 -1.38449 0 
-1.53072 -1.62909 0 
-1.00429 -1.37286 0 
-1.53793 -1.20256 0 
-0.857951 -0.964282 0 
-0.924029 -1.53552 0 
-0.895727 -1.69867 0 
-0.75279 -1.51965 0 
-1.25735 -1.54566 0 
-0.74186 -1.4736 0 
-0.766039 -1.72551 0 
-0.246817 -0.89851 0 
-0.679929 -1.20978 0 
-0.642006 -1.56239 0 
-0.482603 -1.35313 0 
SCALARS mass double 1
LOOKUP_TABLE default
0.625
0.625
0.625
0.625
0.625
0.625
0.625
0.625
0.625
0.625
0.625
0.625
0.625
0.625
0.625
0.625
0.625
0.625
0.625
0.625
0.625
0.625
0.625
0.625
0.625
0.625
0.625
0.625
0.625
0.625
0.625
0.625
0.625
0.625
0.625
0.625
0.625
0.625
0.625
0.625
0.625
0.625
0.625
0.625
0.625
0.625
0.625
0.625
0.625
0.625
0.625
0.625
0.625
0.625
0.625
0.625
0.625
0.625
0.625
0.625
0.625
0.625
0.625
0.625
SCALARS volume double 1
LOOKUP_TABLE default
0.000625851
0.000627518
0.000622434
0.000631137
0.000622594
0.000632604
0.00062102
0.000615743
0.000642471
0.000623057
0.000632565
0.000605705
0.000626543
0.000626635
0.000620949
0.000618122
0.000620031
0.000616608
0.000632961
0.000625616
0.000627989
0.000632671
0.000619726
0.000620213
0.000636139
0.000622924
0.000625189
0.00061167
0.00063618
0.000627448
0.000635727
0.000590296
0.000616679
0.000627867
0.000620421
0.000609433
0.000632154
0.000641558
0.000635248
0.000596648
0.000628
0.000618559
0.000624613
0.000625298
0.000612034
0.000608333
0.00063379
0.000634338
0.000623248
0.000625504
0.000620395
0.000624157
0.000629643
0.00063352
0.000646336
0.000638574
0.000621139
0.000634686
0.00062643
0.00061824
0.000616336
0.000642818
0.000627728
0.00062006
VECTORS momentum double
-1.2409 -0.764262 0 
-1.204 -0.671051 0 
-1.26412 -0.910737 0 
-0.856311 -0.774754 0 
-1.10813 -0.771073 0 
-1.09622 -0.683934 0 
-1.10287 -0.827834 0 
-0.945613 -0.809322 0 
-0.969549 -0.520773 0 
-0.960866 -0.75157 0 
-0.813371 -0.73176 0 
-0.965527 -0.907446 0 
-0.937528 -0.513776 0 
-0.870389 -0.500658 0 
-0.510816 -0.680735 0 
-0.924253 -0.542674 0 
-1.03542 -0.637029 0 
-0.940052 -0.971989 0 
-1.11921 -0.872751 0 
-0.934602 -0.634666 0 
-0.971107 -0.92375 0 
-0.74854 -0.899371 0 
-1.10188 -0.774065 0 
-1.0585 -0.79765 0 
-0.682444 -0.672125 0 
-0.857183 -0.66641 0 
-0.833276 -0.858956 0 
-0.81709 -0.679367 0 
-0.912027 -0.62983 0 
-0.650621 -0.772185 0 
-0.834716 -0.54803 0 
-0.739157 -0.489356 0 
-0.989624 -0.943503 0 
-0.532376 -0.830801 0 
-0.989461 -0.846306 0 
-0.782513 -0.748251 0 
-0.655679 -1.03227 0 
-0.76764 -0.903037 0 
-1.03652 -0.923637 0 
-0.802131 -0.662119 0 
-0.504868 -0.780146 0 
-0.857139 -0.781769 0 
-0.69327 -0.941313 0 
-1.05782 -0.678271 0 
-0.593353 -0.93587 0 
-0.255364 -0.782082 0 
-0.475521 -0.71829 0 
-0.535434 -0.700025 0 
-0.697007 -0.93284 0 
-0.808468 -0.865305 0 
-0.956702 -1.01818 0 
-0.627678 -0.858035 0 
-0.961206 -0.751602 0 
-0.536219 -0.602676 0 
-0.577518 -0.9597 0 
-0.559829 -1.06167 0 
-0.470494 -0.94978 0 
-0.785843 -0.966038 0 
-0.463663 -0.921003 0 
-0.478774 -1.07844 0 
-0.154261 -0.561569 0 
-0.424956 -0.756114 0 
-0.401254 -0.976495 0 
-0.301627 -0.845703 0 
VECTORS body_force double
0 -9.81 0 
0 -9.81 0 
0 -9.81 0 
0 -9.81 0 
0 -9.81 0 
0 -9.81 0 
0 -9.81 0 
0 -9.81 0 
0 -9.81 0 
0 -9.81 0 
0 -9.81 0 
0 -9.81 0 
0 -9.81 0 
0 -9.81 0 
0 -9.81 0 
0 -9.81 0 
0 -9.81 0 
0 -9.81 0 
0 -9.81 0 
0 -9.81 0 
0 -9.81 0 
0 -9.81 0 
0 -9.81 0 
0 -9.81 0 
0 -9.81 0 
0 -9.81 0 
0 -9.81 0 
0 -9.81 0 
0 -9.81 0 
0 -9.81 0 
0 -9.81 0 
0 -9.81 0 
0 -9.81 0 
0 -9.81 0 
0 -9.81 0 
0 -9.81 0 
0 -9.81 0 
0 -9.81 0 
0 -9.81 0 
0 -9.81 0 
0 -9.81 0 
0 -9.81 0 
0 -9.81 0 
0 -9.81 0 
0 -9.81 0 
0 -9.81 0 
0 -9.81 0 
0 -9.81 0 
0 -9.81 0 
0 -9.81 0 
0 -9.81 0 
0 -9.81 0 
0 -9.81 0 
0 -9.81 0 
0 -9.81 0 
0 -9.81 0 
0 -9.81 0 
0 -9.81 0 
0 -9.81 0 
0 -9.81 0 
0 -9.81 0 
0 -9.81 0 
0 -9.81 0 
0 -9.81 0 
TENSORS cauchy_stress double
-74.9248 -1538.51 0
-1538.51 336.473 0
0 0 78.4646

2219.14 -81.4384 0
-81.4384 -1445.8 0
0 0 232.001

-679.228 -1409.91 0
-1409.91 -111.856 0
0 0 -237.325

-1227.07 190.014 0
190.014 3106.07 0
0 0 563.698

-915.005 -1204.42 0
-1204.42 173.365 0
0 0 -222.492

2371.7 119.941 0
119.941 -46.1505 0
0 0 697.666

697.316 -1772.69 0
-1772.69 -1925.79 0
0 0 -368.543

-2060.62 -2242.38 0
-2242.38 -809.141 0
0 0 -860.929

3961.78 -1015.29 0
-1015.29 1340.14 0
0 0 1590.58

-641.231 -1238.52 0
-1238.52 42.3666 0
0 0 -179.659

2119.59 1695.32 0
1695.32 194.227 0
0 0 694.145

-3910.74 189.641 0
189.641 -2119.79 0
0 0 -1809.16

1655.4 -672.697 0
-672.697 -1181.34 0
0 0 142.216

-291.934 -601.791 0
-601.791 794.298 0
0 0 150.709

-334.204 -284.119 0
-284.119 -916.409 0
0 0 -375.184

-652.672 -292.882 0
-292.882 -1475.32 0
0 0 -638.397

329.762 -527.013 0
-527.013 -1864.73 0
0 0 -460.489

9.9864 -323.838 0
-323.838 -2609.59 0
0 0 -779.881

-1035.88 -968.093 0
-968.093 3469.95 0
0 0 730.222

726.853 -1284.64 0
-1284.64 -537.378 0
0 0 56.8425

238.849 -1571.24 0
-1571.24 678.67 0
0 0 275.256

1908.78 -280.688 0
-280.688 437.14 0
0 0 703.775

-2353.33 -3288.19 0
-3288.19 723.817 0
0 0 -488.855

2823.82 -185.027 0
-185.027 -4302.5 0
0 0 -443.607

730.816 44.6378 0
44.6378 2666.26 0
0 0 1019.12

1474.98 -1871.98 0
-1871.98 -2114.89 0
0 0 -191.97

2485.46 -1837.65 0
-1837.65 -2427.27 0
0 0 17.4562

-781.692 -115.796 0
-115.796 -3364.13 0
0 0 -1243.75

3090.98 -2049.11 0
-2049.11 318.533 0
0 0 1022.85

-1276.24 -2797.29 0
-2797.29 2027.91 0
0 0 225.501

3735.6 -331.838 0
-331.838 -463.025 0
0 0 981.773

-3122.82 -864.63 0
-864.63 -7863.38 0
0 0 -3295.86

-2804.51 -230.101 0
-230.101 226.941 0
0 0 -773.27

-995.869 882.81 0
882.81 1876.12 0
0 0 264.075

-174.279 -1926.56 0
-1926.56 -1239.82 0
0 0 -424.229

-2577.03 -701.677 0
-701.677 -2273.53 0
0 0 -1455.17

768.575 -3989.8 0
-3989.8 1420.06 0
0 0 656.591

-681.832 -2315.56 0
-2315.56 5710.34 0
0 0 1508.55

839.071 -768.94 0
-768.94 2288.47 0
0 0 938.262

-1969.41 2701.11 0
2701.11 -6958.26 0
0 0 -2678.3

3370.17 -617.721 0
-617.721 -2449.37 0
0 0 276.242

-5930.66 -1010.23 0
-1010.23 3938.63 0
0 0 -597.609

-1537.78 -3370.08 0
-3370.08 1418.65 0
0 0 -35.7372

-3638.79 1632.24 0
1632.24 3730.6 0
0 0 27.5432

-5027.17 -1122.96 0
-1122.96 995.551 0
0 0 -1209.49

-2288.16 -1064.85 0
-1064.85 -2909.84 0
0 0 -1559.4

9469.76 -3491.52 0
-3491.52 -6784.11 0
0 0 805.694

2461.3 -3085.91 0
-3085.91 390.538 0
0 0 855.552

-380.073 480.146 0
480.146 -159.862 0
0 0 -161.98

457.998 748.838 0
748.838 -302.961 0
0 0 46.5111

-1008.45 -1668.78 0
-1668.78 -413.723 0
0 0 -426.653

-2080.69 -2813.1 0
-2813.1 1821.28 0
0 0 -77.8228

262.996 -745.249 0
-745.249 1160.19 0
0 0 426.956

1439.44 -3329.2 0
-3329.2 1164.35 0
0 0 781.139

2633.73 -890.524 0
-890.524 3821.66 0
0 0 1936.62

988.54 920.102 0
920.102 3143.26 0
0 0 1239.54

1622.34 -2651.56 0
-2651.56 -2813.99 0
0 0 -357.494

-1261.72 -1199.67 0
-1199.67 4219.17 0
0 0 887.234

-2706.69 127.887 0
127.887 3146.11 0
0 0 131.824

-2410.22 -243.108 0
-243.108 318.979 0
0 0 -627.373

2386.73 -1037.2 0
-1037.2 -5071.2 0
0 0 -805.342

-3918.67 -904.657 0
-904.657 9324.41 0
0 0 1621.72

470.037 -1356.64 0
-1356.64 367.673 0
0 0 251.313

-2443.27 141.771 0
141.771 917.376 0
0 0 -457.767

TENSORS velocity_gradient double
-0.517773 -4.90066 0
2.66392 0.725038 0
0 0 0

-0.471396 -4.6288 0
1.97821 1.36306 0
0 0 0

-0.739475 -5.15515 0
2.00519 -0.0311307 0
0 0 0

-0.940158 -4.94122 0
1.34019 0.818562 0
0 0 0

0.754139 -4.48073 0
3.24065 0.932299 0
0 0 0

0.150648 -4.69518 0
3.24196 0.933986 0
0 0 0

-0.734406 -5.23591 0
1.48794 0.829623 0
0 0 0

-0.26419 -5.15544 0
3.07104 0.744347 0
0 0 0

-0.901602 -4.67646 0
3.50552 1.17893 0
0 0 0

0.244446 -3.04875 0
3.83786 -0.98112 0
0 0 0

-0.554893 -3.67725 0
2.90842 -0.824871 0
0 0 0

-0.497626 -3.48652 0
2.80456 -1.15367 0
0 0 0

-0.338124 -2.40634 0
3.67257 -0.798855 0
0 0 0

-0.116319 -1.61733 0
3.50283 -0.788337 0
0 0 0

-0.887759 -3.0645 0
3.51663 -0.985588 0
0 0 0

-1.73385 -3.39571 0
2.98442 1.28371 0
0 0 0

-0.991141 -3.85573 0
-0.11241 2.79244 0
0 0 0

-0.770648 -4.65256 0
1.37464 1.51098 0
0 0 0

-0.537322 -5.489 0
1.17541 0.362937 0
0 0 0

-1.22067 -4.9386 0
0.251083 1.10744 0
0 0 0

-0.457559 -4.91864 0
1.8134 1.20259 0
0 0 0

-0.283098 -4.12559 0
2.08401 -0.61029 0
0 0 0

-0.414565 -4.30048 0
1.82865 -0.301491 0
0 0 0

-0.509739 -3.78044 0
2.07131 -1.55897 0
0 0 0

-0.513007 -3.33085 0
2.79138 -1.39041 0
0 0 0

-0.426199 -3.40759 0
2.6654 -1.27905 0
0 0 0

-0.84587 -3.46271 0
1.99543 -1.48723 0
0 0 0

-0.444598 -5.75027 0
2.61773 -0.236345 0
0 0 0

-0.518675 -5.37404 0
2.64194 -0.336261 0
0 0 0

-2.8097 -4.45828 0
2.06618 0.376811 0
0 0 0

-0.620588 -5.57379 0
2.67565 -0.294432 0
0 0 0

-1.07585 -5.3576 0
2.59428 -0.324912 0
0 0 0

-0.838078 -5.94029 0
0.682815 -0.210298 0
0 0 0

-1.57736 -4.33374 0
-0.340504 -0.23035 0
0 0 0

0.187144 -4.90929 0
2.26834 0.269353 0
0 0 0

-0.477926 -2.00189 0
1.44239 -0.492231 0
0 0 0

-1.00575 -3.52843 0
-0.163285 -1.33292 0
0 0 0

-0.689327 -4.03261 0
1.68659 -1.60155 0
0 0 0

-0.14968 -2.69484 0
0.252846 -0.927716 0
0 0 0

0.255298 -5.01829 0
0.729963 1.84943 0
0 0 0

-0.907907 -5.13875 0
2.23799 1.09567 0
0 0 0

-0.462958 -5.5836 0
3.08448 0.249355 0
0 0 0

-0.524835 -4.79984 0
2.59574 1.94299 0
0 0 0

-0.0570046 -5.11418 0
3.85679 1.14241 0
0 0 0

-0.810919 -5.76364 0
2.73418 -0.218116 0
0 0 0

-1.23562 -5.89917 0
2.41711 1.44685 0
0 0 0

0.120788 -6.81794 0
4.31293 0.684085 0
0 0 0

-1.78612 -6.47235 0
1.90836 0.917133 0
0 0 0

0.0766282 -2.52976 0
2.77803 0.127424 0
0 0 0

-0.393837 -2.19266 0
3.16639 -0.150852 0
0 0 0

1.65715 -3.59809 0
0.89798 -0.727999 0
0 0 0

-0.564205 -4.54258 0
2.89573 -0.938582 0
0 0 0

-0.130039 -5.05338 0
1.71771 1.73998 0
0 0 0

-0.567054 -6.23306 0
1.26682 3.05997 0
0 0 0

0.00531355 -6.45499 0
0.636631 0.957725 0
0 0 0

-0.280652 -6.89873 0
-0.361064 3.05177 0
0 0 0

-1.54896 -5.33771 0
1.8382 2.53895 0
0 0 0

-0.0903816 -6.74261 0
3.6752 0.774966 0
0 0 0

-0.974534 -2.79336 0
1.88875 -0.0208082 0
0 0 0

1.45833 -5.05567 0
1.38946 0.443478 0
0 0 0

0.0534269 -6.87747 0
4.38475 0.747558 0
0 0 0

0.10645 -6.14313 0
4.45671 -0.251727 0
0 0 0

0.673086 -5.44052 0
3.92518 -0.110714 0
0 0 0

1.04717 -2.58105 0
4.55035 -3.18037 0
0 0 0

SCALARS active double 1
LOOKUP_TABLE default
1
1
1
1
1
1
1
1
1
1
1
1
1
1
1
1
1
1
1
1
1
1
1
1
1
1
1
1
1
1
1
1
1
1
1
1
1
1
1
1
1
1
1
1
1
1
1
1
1
1
1
1
1
1
1
1
1
1
1
1
1
1
1
1
SCALARS extent double 1
LOOKUP_TABLE default
0.0125
0.0125
0.0125
0.0125
0.0125
0.0125
0.0125
0.0125
0.0125
0.0125
0.0125
0.0125
0.0125
0.0125
0.0125
0.0125
0.0125
0.0125
0.0125
0.0125
0.0125
0.0125
0.0125
0.0125
0.0125
0.0125
0.0125
0.0125
0.0125
0.0125
0.0125
0.0125
0.0125
0.0125
0.0125
0.0125
0.0125
0.0125
0.0125
0.0125
0.0125
0.0125
0.0125
0.0125
0.0125
0.0125
0.0125
0.0125
0.0125
0.0125
0.0125
0.0125
0.0125
0.0125
0.0125
0.0125
0.0125
0.0125
0.0125
0.0125
0.0125
0.0125
0.0125
0.0125
SCALARS pressure double 1
LOOKUP_TABLE default
-113.338
-335.112
342.803
-814.231
321.377
-1007.74
532.34
1243.56
-2297.5
259.508
-1002.65
2613.23
-205.423
-217.691
541.932
922.129
665.151
1126.49
-1054.77
-82.1058
-397.592
-1016.56
706.124
640.765
-1472.07
277.29
-25.2145
1796.52
-1477.45
-325.723
-1418.12
4760.69
1116.95
-381.442
612.775
2101.91
-948.409
-2179.02
-1355.27
3868.66
-399.016
863.213
51.6204
-39.7846
1747.04
2252.47
-1163.78
-1235.8
233.972
-67.1827
616.277
112.411
-616.714
-1128.31
-2797.33
-1790.45
516.381
-1281.56
-190.413
906.205
1163.27
-2342.48
-363.008
661.22
SCALARS density double 1
LOOKUP_TABLE default
998.641
995.987
1004.12
990.277
1003.86
987.98
1006.41
1015.03
972.807
1003.12
988.04
1031.86
997.538
997.391
1006.52
1011.13
1008.01
1013.61
987.423
999.015
995.24
987.875
1008.51
1007.72
982.49
1003.33
999.697
1021.79
982.427
996.099
983.127
1058.79
1013.49
995.433
1007.38
1025.54
988.684
974.191
983.868
1047.52
995.223
1010.41
1000.62
999.523
1021.19
1027.4
986.132
985.28
1002.81
999.194
1007.42
1001.35
992.627
986.552
966.989
978.744
1006.22
984.739
997.718
1010.93
1014.06
972.282
995.653
1007.97
