# vtk DataFile Version 3.0
Frame: 47, Time: 0.784
ASCII
DATASET UNSTRUCTURED_GRID
POINTS 64 double
0.375598 0.136218 0 
0.350878 0.129226 0 
0.367217 0.160067 0 
0.341944 0.151493 0 
0.325606 0.120607 0 
0.299417 0.114833 0 
0.319282 0.143992 0 
0.2942 0.139189 0 
0.27633 0.108625 0 
0.252042 0.0984721 0 
0.270536 0.133153 0 
0.247191 0.12278 0 
0.225002 0.0947529 0 
0.202742 0.0875778 0 
0.220052 0.117921 0 
0.19711 0.111315 0 
0.357835 0.18243 0 
0.333248 0.173721 0 
0.35353 0.205143 0 
0.328512 0.197214 0 
0.311173 0.167857 0 
0.287173 0.164031 0 
0.305553 0.192378 0 
0.281611 0.187513 0 
0.263741 0.155421 0 
0.241682 0.144711 0 
0.257503 0.178719 0 
0.233884 0.1702 0 
0.215794 0.141297 0 
0.189725 0.137358 0 
0.209317 0.165573 0 
0.185225 0.160608 0 
0.348136 0.22875 0 
0.324282 0.220479 0 
0.343525 0.252633 0 
0.319207 0.244981 0 
0.300901 0.215492 0 
0.276118 0.210908 0 
0.296401 0.239854 0 
0.270808 0.235774 0 
0.252324 0.20279 0 
0.229761 0.195906 0 
0.246213 0.226759 0 
0.223658 0.222301 0 
0.205437 0.189444 0 
0.180825 0.183435 0 
0.199018 0.215505 0 
0.173367 0.207584 0 
0.340028 0.276373 0 
0.31445 0.268293 0 
0.331797 0.29923 0 
0.307371 0.292451 0 
0.290221 0.265014 0 
0.264589 0.258987 0 
0.283205 0.290101 0 
0.258758 0.282935 0 
0.239159 0.250773 0 
0.215516 0.247536 0 
0.2339 0.276497 0 
0.209179 0.271913 0 
0.192543 0.239089 0 
0.167708 0.230717 0 
0.185566 0.26188 0 
0.161382 0.255087 0 
CELLS 64 128
1 0
1 1
1 2
1 3
1 4
1 5
1 6
1 7
1 8
1 9
1 10
1 11
1 12
1 13
1 14
1 15
1 16
1 17
1 18
1 19
1 20
1 21
1 22
1 23
1 24
1 25
1 26
1 27
1 28
1 29
1 30
1 31
1 32
1 33
1 34
1 35
1 36
1 37
1 38
1 39
1 40
1 41
1 42
1 43
1 44
1 45
1 46
1 47
1 48
1 49
1 50
1 51
1 52
1 53
1 54
1 55
1 56
1 57
1 58
1 59
1 60
1 61
1 62
1 63
CELL_TYPES 64
1
1
1
1
1
1
1
1
1
1
1
1
1
1
1
1
1
1
1
1
1
1
1
1
1
1
1
1
1
1
1
1
1
1
1
1
1
1
1
1
1
1
1
1
1
1
1
1
1
1
1
1
1
1
1
1
1
1
1
1
1
1
1
1
POINT_DATA 64
VECTORS displacement double
-0.0369023 -0.276282 0 
-0.0616217 -0.308274 0 
-0.0702827 -0.252433 0 
-0.0955557 -0.286007 0 
-0.0868943 -0.341893 0 
-0.113083 -0.372667 0 
-0.118218 -0.318508 0 
-0.1433 -0.348311 0 
-0.13617 -0.403875 0 
-0.160458 -0.439028 0 
-0.166964 -0.379347 0 
-0.190309 -0.41472 0 
-0.187498 -0.467747 0 
-0.209758 -0.499922 0 
-0.217448 -0.444579 0 
-0.24039 -0.476185 0 
-0.104665 -0.23007 0 
-0.129252 -0.263779 0 
-0.13397 -0.207357 0 
-0.158988 -0.240286 0 
-0.151327 -0.294643 0 
-0.175327 -0.323469 0 
-0.181947 -0.270122 0 
-0.205889 -0.299987 0 
-0.198759 -0.357079 0 
-0.220818 -0.392789 0 
-0.229997 -0.333781 0 
-0.253616 -0.3673 0 
-0.246706 -0.421203 0 
-0.272775 -0.450142 0 
-0.278183 -0.396927 0 
-0.302275 -0.426892 0 
-0.164364 -0.18375 0 
-0.188218 -0.217021 0 
-0.193975 -0.159867 0 
-0.218293 -0.192519 0 
-0.211599 -0.247008 0 
-0.236382 -0.276592 0 
-0.241099 -0.222646 0 
-0.266692 -0.251726 0 
-0.260176 -0.30971 0 
-0.282739 -0.341594 0 
-0.291287 -0.285741 0 
-0.313842 -0.315199 0 
-0.307063 -0.373056 0 
-0.331675 -0.404065 0 
-0.338482 -0.346995 0 
-0.364133 -0.379916 0 
-0.222472 -0.136127 0 
-0.24805 -0.169207 0 
-0.255703 -0.11327 0 
-0.280129 -0.145049 0 
-0.272279 -0.197486 0 
-0.297911 -0.228513 0 
-0.304295 -0.172399 0 
-0.328742 -0.204565 0 
-0.323341 -0.261727 0 
-0.346984 -0.289964 0 
-0.3536 -0.236003 0 
-0.378321 -0.265587 0 
-0.369957 -0.323411 0 
-0.394792 -0.356783 0 
-0.401934 -0.30062 0 
-0.426118 -0.332413 0 
VECTORS velocity double
-0.374172 0.263745 0 
-0.754251 0.307334 0 
-0.671225 0.441509 0 
-0.478886 0.114404 0 
-0.182834 -0.0769026 0 
-1.03868 0.367071 0 
-0.347747 -0.340457 0 
-0.91524 0.332631 0 
-0.123259 -0.0128427 0 
-0.647068 -0.213825 0 
0.149839 0.16661 0 
-0.571319 -0.176145 0 
-0.497011 -0.103622 0 
-0.251256 -0.186282 0 
-0.675737 -0.0689639 0 
-0.609571 -0.0941672 0 
-0.339828 0.106662 0 
-0.458714 -0.0656715 0 
-0.612481 0.298972 0 
-0.638628 -0.13978 0 
-0.281907 0.142605 0 
-0.585513 0.385029 0 
-0.540316 0.168381 0 
-0.999778 0.177732 0 
-0.311762 -0.111927 0 
-0.501054 -0.663188 0 
-0.894058 0.0516727 0 
-0.954354 0.0368356 0 
-0.534173 -0.339238 0 
-0.328503 -0.202398 0 
-0.577281 0.403963 0 
-0.760334 -0.255991 0 
-0.561092 0.0804158 0 
-0.570705 -0.0894899 0 
-0.440763 -0.30564 0 
-0.436894 0.197848 0 
-0.45309 0.0232235 0 
-0.560684 -0.243879 0 
-0.778936 0.00184679 0 
-0.972221 -0.232082 0 
-0.307779 -0.256611 0 
-0.329085 -0.199914 0 
-0.720313 -0.147239 0 
-0.930507 -0.289229 0 
-0.565584 -0.58956 0 
-0.84883 -0.786228 0 
-0.758069 -0.124271 0 
-0.602571 -0.0564424 0 
-0.457715 -0.114651 0 
-0.372214 0.046338 0 
-0.484141 -0.111687 0 
-0.650855 -0.256458 0 
-0.440078 -0.348183 0 
-0.284438 0.0671975 0 
-1.05354 -0.34694 0 
-0.971689 -0.151019 0 
-0.302075 0.012144 0 
-0.785219 -0.488278 0 
-0.871523 -0.540689 0 
-0.668549 -0.249853 0 
-0.25115 -0.423688 0 
-0.749769 -0.438239 0 
-1.06928 -0.504948 0 
-0.695977 -0.280031 0 
SCALARS mass double 1
LOOKUP_TABLE default
0.625
0.625
0.625
0.625
0.625
0.625
0.625
0.625
0.625
0.625
0.625
0.625
0.625
0.625
0.625
0.625
0.625
0.625
0.625
0.625
0.625
0.625
0.625
0.625
0.625
0.625
0.625
0.625
0.625
0.625
0.625
0.625
0.625
0.625
0.625
0.625
0.625
0.625
0.625
0.625
0.625
0.625
0.625
0.625
0.625
0.625
0.625
0.625
0.625
0.625
0.625
0.625
0.625
0.625
0.625
0.625
0.625
0.625
0.625
0.625
0.625
0.625
0.625
0.625
SCALARS volume double 1
LOOKUP_TABLE default
0.000637927
0.000612093
0.000629173
0.000630065
0.000635822
0.000653222
0.000610167
0.000634035
0.000608007
0.0006307
0.00059517
0.00061182
0.000636569
0.000611181
0.000596977
0.000627296
0.0006245
0.000615413
0.000617037
0.000653285
0.000602471
0.000635486
0.000589707
0.000590534
0.000626503
0.000618547
0.000587997
0.000628079
0.000641346
0.000611385
0.000594556
0.000610565
0.000592401
0.00060087
0.000612948
0.000591203
0.000631785
0.00062656
0.000616415
0.000604656
0.000625024
0.000637529
0.000625499
0.000612465
0.000616692
0.000617043
0.000658893
0.000619074
0.000614404
0.000658617
0.000633355
0.000613831
0.000637743
0.000632075
0.000606991
0.000624022
0.000640646
0.000610666
0.000614663
0.000637127
0.000602178
0.000609214
0.000635621
0.000613838
VECTORS momentum double
-0.233857 0.164841 0 
-0.471407 0.192084 0 
-0.419516 0.275943 0 
-0.299304 0.0715025 0 
-0.114271 -0.0480641 0 
-0.649174 0.229419 0 
-0.217342 -0.212786 0 
-0.572025 0.207894 0 
-0.0770369 -0.00802668 0 
-0.404418 -0.133641 0 
0.0936492 0.104131 0 
-0.357074 -0.110091 0 
-0.310632 -0.0647639 0 
-0.157035 -0.116427 0 
-0.422336 -0.0431025 0 
-0.380982 -0.0588545 0 
-0.212393 0.0666639 0 
-0.286697 -0.0410447 0 
-0.382801 0.186857 0 
-0.399142 -0.0873624 0 
-0.176192 0.0891284 0 
-0.365946 0.240643 0 
-0.337697 0.105238 0 
-0.624861 0.111082 0 
-0.194851 -0.0699542 0 
-0.313159 -0.414493 0 
-0.558786 0.0322955 0 
-0.596471 0.0230222 0 
-0.333858 -0.212024 0 
-0.205314 -0.126498 0 
-0.360801 0.252477 0 
-0.475209 -0.159995 0 
-0.350682 0.0502599 0 
-0.35669 -0.0559312 0 
-0.275477 -0.191025 0 
-0.273059 0.123655 0 
-0.283181 0.0145147 0 
-0.350428 -0.152424 0 
-0.486835 0.00115424 0 
-0.607638 -0.145051 0 
-0.192362 -0.160382 0 
-0.205678 -0.124946 0 
-0.450196 -0.0920247 0 
-0.581567 -0.180768 0 
-0.35349 -0.368475 0 
-0.530519 -0.491393 0 
-0.473793 -0.0776692 0 
-0.376607 -0.0352765 0 
-0.286072 -0.0716566 0 
-0.232634 0.0289613 0 
-0.302588 -0.0698042 0 
-0.406784 -0.160286 0 
-0.275049 -0.217614 0 
-0.177774 0.0419984 0 
-0.658462 -0.216838 0 
-0.607306 -0.0943868 0 
-0.188797 0.00758999 0 
-0.490762 -0.305174 0 
-0.544702 -0.33793 0 
-0.417843 -0.156158 0 
-0.156969 -0.264805 0 
-0.468606 -0.273899 0 
-0.668297 -0.315593 0 
-0.434985 -0.17502 0 
VECTORS body_force double
0 -9.81 0 
0 -9.81 0 
0 -9.81 0 
0 -9.81 0 
0 -9.81 0 
0 -9.81 0 
0 -9.81 0 
0 -9.81 0 
0 -9.81 0 
0 -9.81 0 
0 -9.81 0 
0 -9.81 0 
0 -9.81 0 
0 -9.81 0 
0 -9.81 0 
0 -9.81 0 
0 -9.81 0 
0 -9.81 0 
0 -9.81 0 
0 -9.81 0 
0 -9.81 0 
0 -9.81 0 
0 -9.81 0 
0 -9.81 0 
0 -9.81 0 
0 -9.81 0 
0 -9.81 0 
0 -9.81 0 
0 -9.81 0 
0 -9.81 0 
0 -9.81 0 
0 -9.81 0 
0 -9.81 0 
0 -9.81 0 
0 -9.81 0 
0 -9.81 0 
0 -9.81 0 
0 -9.81 0 
0 -9.81 0 
0 -9.81 0 
0 -9.81 0 
0 -9.81 0 
0 -9.81 0 
0 -9.81 0 
0 -9.81 0 
0 -9.81 0 
0 -9.81 0 
0 -9.81 0 
0 -9.81 0 
0 -9.81 0 
0 -9.81 0 
0 -9.81 0 
0 -9.81 0 
0 -9.81 0 
0 -9.81 0 
0 -9.81 0 
0 -9.81 0 
0 -9.81 0 
0 -9.81 0 
0 -9.81 0 
0 -9.81 0 
0 -9.81 0 
0 -9.81 0 
0 -9.81 0 
TENSORS cauchy_stress double
1860.21 1307.21 0
1307.21 2076.74 0
0 0 1181.09

-56.156 1074.22 0
1074.22 -3956.88 0
0 0 -1203.91

-284.835 -194.72 0
-194.72 1564.68 0
0 0 383.955

1061.48 2413.19 0
2413.19 490.588 0
0 0 465.622

3422.22 345.192 0
345.192 -121.009 0
0 0 990.362

7462.7 -1343.05 0
-1343.05 1030.53 0
0 0 2547.97

-5614.46 4043.04 0
4043.04 995.562 0
0 0 -1385.67

1882.02 -7178.24 0
-7178.24 878.046 0
0 0 828.02

-5483.16 2403.6 0
2403.6 182.186 0
0 0 -1590.29

2486.58 1749.28 0
1749.28 -740.735 0
0 0 523.753

-7431.28 5028.89 0
5028.89 -1973.45 0
0 0 -2821.42

-192.492 2036.48 0
2036.48 -3906.23 0
0 0 -1229.62

3808.43 -317.962 0
-317.962 -281.231 0
0 0 1058.16

-4677.34 -985.067 0
-985.067 377.622 0
0 0 -1289.91

-1740.41 1101.52 0
1101.52 -7081.5 0
0 0 -2646.57

-782.341 2290.56 0
2290.56 1487.45 0
0 0 211.533

-2048.61 -82.2685 0
-82.2685 1894.6 0
0 0 -46.2024

2899.81 -1847.75 0
-1847.75 -5872.47 0
0 0 -891.797

872.03 -1046.28 0
-1046.28 -3337.92 0
0 0 -739.768

8070.04 -1171.27 0
-1171.27 441.959 0
0 0 2553.6

-6199.67 -633.487 0
-633.487 -860.254 0
0 0 -2117.98

1483.64 -7104.01 0
-7104.01 1716.01 0
0 0 959.893

-7137.75 -341.091 0
-341.091 -4040.44 0
0 0 -3353.46

-2897.26 887.453 0
887.453 -8011.37 0
0 0 -3272.59

2168.17 -3463.9 0
-3463.9 -1706.36 0
0 0 138.543

-3082.29 -2683.12 0
-2683.12 1086.31 0
0 0 -598.794

-8458.8 6055.94 0
6055.94 -3277.76 0
0 0 -3520.97

640.337 -122.712 0
-122.712 304.666 0
0 0 283.501

5156.71 -244.917 0
-244.917 -191.813 0
0 0 1489.47

-334.545 -0.438452 0
-0.438452 -3900.94 0
0 0 -1270.65

-4629.16 593.969 0
593.969 -4973.94 0
0 0 -2880.93

114.419 -529.602 0
-529.602 -4608.01 0
0 0 -1348.08

-7734.44 -1657.41 0
-1657.41 -2567.06 0
0 0 -3090.45

-4366.51 877.03 0
877.03 -3205.25 0
0 0 -2271.53

-1711.35 -2316.9 0
-2316.9 -2033.14 0
0 0 -1123.34

-6270.29 520.546 0
520.546 -4420.39 0
0 0 -3207.21

2163.65 -1774.42 0
-1774.42 -87.3448 0
0 0 622.891

2180.08 -5430.89 0
-5430.89 -1700.53 0
0 0 143.865

483.454 -1667.61 0
-1667.61 -3143.3 0
0 0 -797.955

-1131.55 2909.97 0
2909.97 -5232.18 0
0 0 -1909.12

3285.31 -819.562 0
-819.562 -3278.05 0
0 0 2.18029

1175.3 -6750.12 0
-6750.12 2641.65 0
0 0 1145.09

-916.429 4469.83 0
4469.83 1069.97 0
0 0 46.0618

-6034.14 -939.983 0
-939.983 2137.89 0
0 0 -1168.88

-569.978 781.139 0
781.139 -2003.4 0
0 0 -772.014

67.9978 2684.03 0
2684.03 -2532.07 0
0 0 -739.221

6037.93 7101.18 0
7101.18 4117.7 0
0 0 3046.69

551.171 -183.244 0
-183.244 -2383.23 0
0 0 -549.618

-1251.5 -1274.23 0
-1274.23 -2036.85 0
0 0 -986.505

6853.52 3624.79 0
3624.79 3221.7 0
0 0 3022.57

1664.6 1146.25 0
1146.25 889.137 0
0 0 766.122

281.047 834.895 0
834.895 -3748.69 0
0 0 -1040.29

3690.1 -95.0685 0
-95.0685 191.284 0
0 0 1164.42

2200.94 -1618.03 0
-1618.03 -36.3027 0
0 0 649.393

-3927.76 497.33 0
497.33 -1694.77 0
0 0 -1686.76

1479.62 3699.21 0
3699.21 -1780.83 0
0 0 -90.3608

4046.03 -2439.56 0
-2439.56 708.748 0
0 0 1426.43

-2796.92 -5214.64 0
-5214.64 -1664.85 0
0 0 -1338.53

-1658.68 1530.69 0
1530.69 -1548.64 0
0 0 -962.196

3657.1 3439.43 0
3439.43 38.4385 0
0 0 1108.66

-244.49 -1224.67 0
-1224.67 -6909.17 0
0 0 -2146.1

-307.013 -2102.19 0
-2102.19 -4612.73 0
0 0 -1475.92

1886.84 114.059 0
114.059 1353.79 0
0 0 972.189

-2576.26 -859.413 0
-859.413 -889.109 0
0 0 -1039.61

TENSORS velocity_gradient double
-0.170569 -1.2816 0
3.74946 0.178245 0
0 0 0

0.326198 -0.215031 0
2.24502 0.204779 0
0 0 0

-0.170412 0.353734 0
3.7103 -1.00981 0
0 0 0

0.82713 -0.606944 0
0.0790517 -0.628243 0
0 0 0

0.464637 -0.292748 0
-0.182998 0.0669893 0
0 0 0

0.119998 -0.619222 0
2.53892 -0.0879034 0
0 0 0

0.753452 -0.377401 0
-0.0239995 0.00948863 0
0 0 0

0.216193 -0.685787 0
4.81571 -0.104786 0
0 0 0

-0.2278 -0.922259 0
5.23673 -0.103347 0
0 0 0

-0.831564 -1.31487 0
3.08442 1.21776 0
0 0 0

0.0973508 -0.998657 0
5.23004 -0.101775 0
0 0 0

0.045225 -1.41115 0
2.20023 -0.146216 0
0 0 0

-0.651154 -1.68466 0
0.387674 0.215425 0
0 0 0

1.12763 -0.954236 0
-0.103718 -0.112509 0
0 0 0

-0.0967216 -2.37915 0
0.740334 -0.438133 0
0 0 0

2.01612 -2.79702 0
-0.462442 -1.16644 0
0 0 0

1.39402 -0.300605 0
3.68285 -0.998326 0
0 0 0

1.0013 -1.00063 0
0.505558 -1.32382 0
0 0 0

0.105723 -0.748293 0
0.717192 -4.64634 0
0 0 0

1.21548 -0.457313 0
0.940168 -1.60417 0
0 0 0

0.958688 -1.16095 0
0.384225 -1.78028 0
0 0 0

0.398585 -1.31495 0
4.59503 -1.46955 0
0 0 0

1.13174 -1.20144 0
0.915633 -1.89194 0
0 0 0

0.530632 -1.34596 0
3.53422 -1.22043 0
0 0 0

0.347933 -1.4244 0
4.96118 -0.394058 0
0 0 0

0.880931 -1.55987 0
1.07214 -0.18318 0
0 0 0

0.481766 -1.48122 0
3.92678 -0.133828 0
0 0 0

0.960208 -1.42164 0
2.11171 -0.531814 0
0 0 0

0.778468 -2.53627 0
1.0121 -0.486924 0
0 0 0

1.384 -2.522 0
2.12476 -1.82546 0
0 0 0

0.991204 -1.25563 0
1.8865 -1.73799 0
0 0 0

0.557611 -1.15871 0
2.96032 -1.39473 0
0 0 0

-3.16054 0.453704 0
-4.08403 -3.56491 0
0 0 0

1.8611 0.948191 0
0.846233 -2.05057 0
0 0 0

2.33522 -0.383311 0
0.188669 -2.22558 0
0 0 0

2.64578 0.569816 0
0.620869 -2.07026 0
0 0 0

1.25245 0.275312 0
1.61847 -1.81293 0
0 0 0

0.548672 0.248019 0
2.84474 -1.53189 0
0 0 0

0.951386 0.212527 0
2.02797 -1.7643 0
0 0 0

0.430619 0.273198 0
2.55583 -1.47027 0
0 0 0

0.643919 -0.160554 0
3.12339 -0.949097 0
0 0 0

0.814472 -1.12607 0
3.31772 -0.821861 0
0 0 0

1.04133 0.285564 0
3.33037 -1.23674 0
0 0 0

1.15118 -0.071563 0
3.55281 -1.20475 0
0 0 0

0.824944 -1.23001 0
3.03784 -1.91794 0
0 0 0

0.509484 -1.14951 0
1.61742 -1.13803 0
0 0 0

0.795237 -0.463515 0
1.85177 -1.11711 0
0 0 0

0.527047 -0.66365 0
0.485274 -0.608814 0
0 0 0

2.9863 -1.1759 0
1.14593 -2.22509 0
0 0 0

2.93715 -1.33123 0
0.964264 -2.79912 0
0 0 0

2.7892 -1.48655 0
1.38853 -2.32983 0
0 0 0

3.08471 -1.37401 0
1.5096 -2.95719 0
0 0 0

1.61713 -2.18052 0
1.90554 -2.84284 0
0 0 0

1.12129 -4.30098 0
2.09805 -2.01959 0
0 0 0

3.70026 -2.75462 0
1.09679 -2.61995 0
0 0 0

3.10823 -4.77359 0
1.32664 -1.8361 0
0 0 0

1.37908 -2.80774 0
3.42185 -1.21127 0
0 0 0

1.4403 -1.33995 0
3.47275 -0.958889 0
0 0 0

0.126032 -4.70037 0
2.6901 -1.04615 0
0 0 0

0.379645 -3.31231 0
2.83266 -0.265932 0
0 0 0

0.733678 -0.537929 0
-0.218812 -1.0372 0
0 0 0

0.678749 -0.700615 0
-0.0316432 -0.482859 0
0 0 0

0.395246 -2.29864 0
-0.181368 -0.259185 0
0 0 0

0.60562 -1.44375 0
-0.315129 -0.769703 0
0 0 0

SCALARS active double 1
LOOKUP_TABLE default
1
1
1
1
1
1
1
1
1
1
1
1
1
1
1
1
1
1
1
1
1
1
1
1
1
1
1
1
1
1
1
1
1
1
1
1
1
1
1
1
1
1
1
1
1
1
1
1
1
1
1
1
1
1
1
1
1
1
1
1
1
1
1
1
SCALARS extent double 1
LOOKUP_TABLE default
0.0125
0.0125
0.0125
0.0125
0.0125
0.0125
0.0125
0.0125
0.0125
0.0125
0.0125
0.0125
0.0125
0.0125
0.0125
0.0125
0.0125
0.0125
0.0125
0.0125
0.0125
0.0125
0.0125
0.0125
0.0125
0.0125
0.0125
0.0125
0.0125
0.0125
0.0125
0.0125
0.0125
0.0125
0.0125
0.0125
0.0125
0.0125
0.0125
0.0125
0.0125
0.0125
0.0125
0.0125
0.0125
0.0125
0.0125
0.0125
0.0125
0.0125
0.0125
0.0125
0.0125
0.0125
0.0125
0.0125
0.0125
0.0125
0.0125
0.0125
0.0125
0.0125
0.0125
0.0125
SCALARS pressure double 1
LOOKUP_TABLE default
-1706.02
1738.98
-554.601
-672.565
-1430.52
-3680.4
2001.52
-1196.03
2297.09
-756.531
4075.38
1776.11
-1528.45
1863.21
3822.82
-305.547
66.7368
1288.15
1068.55
-3688.53
3059.3
-1386.51
4843.88
4727.07
-200.118
864.925
5085.84
-409.501
-2151.46
1835.38
4161.34
1947.22
4463.98
3281.1
1622.61
4632.63
-899.731
-207.806
1152.6
2757.62
-3.1493
-1654.01
-66.5337
1688.38
1115.13
1067.76
-4400.78
793.892
1424.95
-4365.93
-1106.62
1502.65
-1681.93
-938.011
2436.43
130.521
-2060.4
1933.43
1389.84
-1601.4
3099.92
2131.89
-1404.27
1501.66
SCALARS density double 1
LOOKUP_TABLE default
979.736
1021.09
993.367
991.962
982.98
956.796
1024.31
985.75
1027.95
990.963
1050.12
1021.54
981.826
1022.61
1046.94
996.34
1000.8
1015.58
1012.91
956.703
1037.39
983.5
1059.85
1058.36
997.601
1010.43
1062.93
995.098
974.513
1022.27
1051.2
1023.64
1055.03
1040.16
1019.66
1057.17
989.261
997.509
1013.93
1033.65
999.962
980.348
999.202
1020.47
1013.47
1012.9
948.561
1009.57
1017.25
948.958
986.808
1018.2
980.019
988.807
1029.67
1001.57
975.578
1023.47
1016.82
980.967
1037.9
1025.91
983.29
1018.18
