# vtk DataFile Version 3.0
Frame: 23, Time: 0.384
ASCII
DATASET UNSTRUCTURED_GRID
POINTS 64 double
0.579612 0.331442 0 
0.602788 0.340738 0 
0.589023 0.306539 0 
0.613294 0.317254 0 
0.626305 0.350838 0 
0.650831 0.359913 0 
0.636533 0.327776 0 
0.660584 0.336569 0 
0.675071 0.36764 0 
0.699032 0.374661 0 
0.684148 0.343029 0 
0.706888 0.349609 0 
0.723008 0.38105 0 
0.747072 0.388322 0 
0.730292 0.356569 0 
0.754948 0.364772 0 
0.600332 0.283252 0 
0.622755 0.294557 0 
0.610627 0.260121 0 
0.633085 0.271396 0 
0.645887 0.303309 0 
0.669029 0.311804 0 
0.656584 0.278557 0 
0.679758 0.287328 0 
0.693054 0.318024 0 
0.715855 0.324506 0 
0.703918 0.294265 0 
0.727616 0.301106 0 
0.739775 0.332692 0 
0.763344 0.342111 0 
0.750618 0.309379 0 
0.773969 0.319413 0 
0.6199 0.237411 0 
0.642658 0.246786 0 
0.626817 0.212854 0 
0.651124 0.222368 0 
0.666461 0.255095 0 
0.690283 0.262937 0 
0.675151 0.230809 0 
0.697218 0.238224 0 
0.714383 0.270093 0 
0.737857 0.278147 0 
0.722037 0.245236 0 
0.747076 0.253179 0 
0.760666 0.285607 0 
0.783867 0.294176 0 
0.769783 0.260979 0 
0.793653 0.268987 0 
0.63588 0.189634 0 
0.659283 0.198553 0 
0.643631 0.165533 0 
0.666542 0.173551 0 
0.682541 0.206129 0 
0.705844 0.215152 0 
0.69078 0.1818 0 
0.714826 0.190776 0 
0.730621 0.222594 0 
0.755273 0.228371 0 
0.736681 0.19816 0 
0.760931 0.203036 0 
0.779216 0.235703 0 
0.802675 0.244623 0 
0.785581 0.210738 0 
0.810308 0.220205 0 
CELLS 64 128
1 0
1 1
1 2
1 3
1 4
1 5
1 6
1 7
1 8
1 9
1 10
1 11
1 12
1 13
1 14
1 15
1 16
1 17
1 18
1 19
1 20
1 21
1 22
1 23
1 24
1 25
1 26
1 27
1 28
1 29
1 30
1 31
1 32
1 33
1 34
1 35
1 36
1 37
1 38
1 39
1 40
1 41
1 42
1 43
1 44
1 45
1 46
1 47
1 48
1 49
1 50
1 51
1 52
1 53
1 54
1 55
1 56
1 57
1 58
1 59
1 60
1 61
1 62
1 63
CELL_TYPES 64
1
1
1
1
1
1
1
1
1
1
1
1
1
1
1
1
1
1
1
1
1
1
1
1
1
1
1
1
1
1
1
1
1
1
1
1
1
1
1
1
1
1
1
1
1
1
1
1
1
1
1
1
1
1
1
1
1
1
1
1
1
1
1
1
POINT_DATA 64
VECTORS displacement double
0.0671124 -0.281058 0 
0.0902877 -0.296762 0 
0.051523 -0.305961 0 
0.0757935 -0.320246 0 
0.113805 -0.311662 0 
0.138331 -0.327587 0 
0.0990328 -0.334724 0 
0.123084 -0.350931 0 
0.162571 -0.34486 0 
0.186532 -0.362839 0 
0.146648 -0.369471 0 
0.169388 -0.387891 0 
0.210508 -0.38145 0 
0.234572 -0.399178 0 
0.192792 -0.405931 0 
0.217448 -0.422728 0 
0.0378324 -0.329248 0 
0.0602548 -0.342943 0 
0.0231266 -0.352379 0 
0.045585 -0.366104 0 
0.083387 -0.359191 0 
0.106529 -0.375696 0 
0.0690841 -0.383943 0 
0.0922575 -0.400172 0 
0.130554 -0.394476 0 
0.153355 -0.412994 0 
0.116418 -0.418235 0 
0.140116 -0.436394 0 
0.177275 -0.429808 0 
0.200844 -0.445389 0 
0.163118 -0.453121 0 
0.186469 -0.468087 0 
0.00739991 -0.375089 0 
0.0301581 -0.390714 0 
-0.0106829 -0.399646 0 
0.0136238 -0.415132 0 
0.0539608 -0.407405 0 
0.0777829 -0.424563 0 
0.0376512 -0.431691 0 
0.059718 -0.449276 0 
0.101883 -0.442407 0 
0.125357 -0.459353 0 
0.0845367 -0.467264 0 
0.109576 -0.484321 0 
0.148166 -0.476893 0 
0.171367 -0.493324 0 
0.132283 -0.501521 0 
0.156153 -0.518513 0 
-0.0266197 -0.422866 0 
-0.00321657 -0.438947 0 
-0.0438686 -0.446967 0 
-0.0209582 -0.463949 0 
0.0200405 -0.456371 0 
0.0433435 -0.472348 0 
0.00327983 -0.4807 0 
0.0273264 -0.496724 0 
0.0681209 -0.489906 0 
0.0927727 -0.509129 0 
0.0491808 -0.51434 0 
0.0734306 -0.534464 0 
0.116716 -0.526797 0 
0.140175 -0.542877 0 
0.0980813 -0.551762 0 
0.122808 -0.567295 0 
VECTORS velocity double
3.00253 4.19978 0 
3.72673 2.85428 0 
1.67522 2.97801 0 
2.48713 1.93349 0 
3.73906 2.26569 0 
3.93789 2.20072 0 
2.41218 1.7422 0 
2.35788 1.30901 0 
4.14697 1.7668 0 
4.15601 1.54907 0 
2.43614 0.653065 0 
2.45393 0.394958 0 
4.03135 1.71637 0 
4.40128 -0.107714 0 
2.51532 0.57255 0 
3.47831 -0.478415 0 
1.9025 3.3537 0 
2.64512 1.96642 0 
1.1658 3.27031 0 
2.04564 1.93046 0 
2.91986 2.07517 0 
3.28771 1.61912 0 
2.23477 1.36058 0 
2.66379 1.29134 0 
3.16281 1.08433 0 
2.7118 0.828817 0 
2.62429 0.840299 0 
2.44127 0.638834 0 
2.44184 0.89184 0 
3.28259 0.531157 0 
2.19967 0.732272 0 
2.86709 0.0153949 0 
0.18948 2.46028 0 
1.133 1.44276 0 
-0.73895 2.37065 0 
0.498021 1.18017 0 
1.29172 0.565099 0 
1.17922 0.695091 0 
0.602022 0.321387 0 
0.315799 0.378483 0 
1.50445 0.232537 0 
1.51444 -0.10216 0 
0.29692 -0.332758 0 
0.418693 -0.56424 0 
1.18511 -0.0872699 0 
1.73944 -0.948189 0 
0.473783 -0.219472 0 
1.25373 -0.885685 0 
-0.555789 2.14727 0 
0.0613515 0.715552 0 
-1.2363 1.4998 0 
-1.10445 0.389164 0 
0.16579 0.312512 0 
0.405236 0.673596 0 
-1.18825 -0.111436 0 
-0.904868 -0.41794 0 
0.759809 0.61746 0 
0.611939 0.302926 0 
-0.187752 -0.600357 0 
-0.0322339 -0.548681 0 
0.479385 0.367399 0 
1.41768 -0.686633 0 
-0.999963 0.0394823 0 
0.135211 -1.0503 0 
SCALARS mass double 1
LOOKUP_TABLE default
0.625
0.625
0.625
0.625
0.625
0.625
0.625
0.625
0.625
0.625
0.625
0.625
0.625
0.625
0.625
0.625
0.625
0.625
0.625
0.625
0.625
0.625
0.625
0.625
0.625
0.625
0.625
0.625
0.625
0.625
0.625
0.625
0.625
0.625
0.625
0.625
0.625
0.625
0.625
0.625
0.625
0.625
0.625
0.625
0.625
0.625
0.625
0.625
0.625
0.625
0.625
0.625
0.625
0.625
0.625
0.625
0.625
0.625
0.625
0.625
0.625
0.625
0.625
0.625
SCALARS volume double 1
LOOKUP_TABLE default
0.000648077
0.000652632
0.000640819
0.000649447
0.000642398
0.000639463
0.000629687
0.000633005
0.000637718
0.000635736
0.000624566
0.000615801
0.000640681
0.000623609
0.000619819
0.000619764
0.000637652
0.000624119
0.000632783
0.000627828
0.000649593
0.000657874
0.000637539
0.000648799
0.000603901
0.000635366
0.000672996
0.000609659
0.000641668
0.000622677
0.000645495
0.000639314
0.000597823
0.000653556
0.000646552
0.000669469
0.000618522
0.000647594
0.000614349
0.000605965
0.000648119
0.000594193
0.000661017
0.000639198
0.000617024
0.000657378
0.000645394
0.00064644
0.000633344
0.000615822
0.00062254
0.000597278
0.000621952
0.000612042
0.000653227
0.000632025
0.000601544
0.000636648
0.00061459
0.00061518
0.000649546
0.00064142
0.00061696
0.000634733
VECTORS momentum double
1.87658 2.62486 0 
2.32921 1.78392 0 
1.04701 1.86125 0 
1.55446 1.20843 0 
2.33691 1.41606 0 
2.46118 1.37545 0 
1.50762 1.08887 0 
1.47367 0.818134 0 
2.59186 1.10425 0 
2.5975 0.968167 0 
1.52259 0.408166 0 
1.53371 0.246849 0 
2.5196 1.07273 0 
2.7508 -0.0673213 0 
1.57208 0.357844 0 
2.17394 -0.299009 0 
1.18906 2.09606 0 
1.6532 1.22901 0 
0.728626 2.04394 0 
1.27853 1.20654 0 
1.82491 1.29698 0 
2.05482 1.01195 0 
1.39673 0.850363 0 
1.66487 0.807086 0 
1.97675 0.677705 0 
1.69488 0.518011 0 
1.64018 0.525187 0 
1.52579 0.399272 0 
1.52615 0.5574 0 
2.05162 0.331973 0 
1.3748 0.45767 0 
1.79193 0.00962182 0 
0.118425 1.53767 0 
0.708125 0.901727 0 
-0.461844 1.48166 0 
0.311263 0.737603 0 
0.807328 0.353187 0 
0.737014 0.434432 0 
0.376264 0.200867 0 
0.197374 0.236552 0 
0.940279 0.145335 0 
0.946528 -0.0638502 0 
0.185575 -0.207974 0 
0.261683 -0.35265 0 
0.740696 -0.0545437 0 
1.08715 -0.592618 0 
0.296115 -0.13717 0 
0.783579 -0.553553 0 
-0.347368 1.34204 0 
0.0383447 0.44722 0 
-0.772688 0.937373 0 
-0.690284 0.243228 0 
0.103618 0.19532 0 
0.253272 0.420997 0 
-0.742658 -0.0696473 0 
-0.565543 -0.261212 0 
0.474881 0.385913 0 
0.382462 0.189329 0 
-0.117345 -0.375223 0 
-0.0201462 -0.342926 0 
0.299615 0.229625 0 
0.88605 -0.429145 0 
-0.624977 0.0246764 0 
0.0845068 -0.656435 0 
VECTORS body_force double
0 -9.81 0 
0 -9.81 0 
0 -9.81 0 
0 -9.81 0 
0 -9.81 0 
0 -9.81 0 
0 -9.81 0 
0 -9.81 0 
0 -9.81 0 
0 -9.81 0 
0 -9.81 0 
0 -9.81 0 
0 -9.81 0 
0 -9.81 0 
0 -9.81 0 
0 -9.81 0 
0 -9.81 0 
0 -9.81 0 
0 -9.81 0 
0 -9.81 0 
0 -9.81 0 
0 -9.81 0 
0 -9.81 0 
0 -9.81 0 
0 -9.81 0 
0 -9.81 0 
0 -9.81 0 
0 -9.81 0 
0 -9.81 0 
0 -9.81 0 
0 -9.81 0 
0 -9.81 0 
0 -9.81 0 
0 -9.81 0 
0 -9.81 0 
0 -9.81 0 
0 -9.81 0 
0 -9.81 0 
0 -9.81 0 
0 -9.81 0 
0 -9.81 0 
0 -9.81 0 
0 -9.81 0 
0 -9.81 0 
0 -9.81 0 
0 -9.81 0 
0 -9.81 0 
0 -9.81 0 
0 -9.81 0 
0 -9.81 0 
0 -9.81 0 
0 -9.81 0 
0 -9.81 0 
0 -9.81 0 
0 -9.81 0 
0 -9.81 0 
0 -9.81 0 
0 -9.81 0 
0 -9.81 0 
0 -9.81 0 
0 -9.81 0 
0 -9.81 0 
0 -9.81 0 
0 -9.81 0 
TENSORS cauchy_stress double
-1075.85 -883.239 0
-883.239 8048.42 0
0 0 2091.77

3933.17 978.434 0
978.434 4386.44 0
0 0 2495.89

-591.667 2963.44 0
2963.44 5398.53 0
0 0 1442.06

8774.54 -546.741 0
-546.741 -1395.66 0
0 0 2213.66

4122.83 214.891 0
214.891 1157.34 0
0 0 1584.05

4830.65 -1146.97 0
-1146.97 -431.149 0
0 0 1319.85

-59.7443 1193.16 0
1193.16 1496.39 0
0 0 430.992

3334.72 -3036.37 0
-3036.37 -887.277 0
0 0 734.232

2351.51 -862.456 0
-862.456 1522.46 0
0 0 1162.19

-353.131 -1191.11 0
-1191.11 3628.55 0
0 0 982.627

-1671 -5463.61 0
-5463.61 1537.33 0
0 0 -40.1015

-2906.13 -4979.45 0
-4979.45 54.7253 0
0 0 -855.42

2048.27 -2402.26 0
-2402.26 2717.27 0
0 0 1429.66

-905.291 419.806 0
419.806 476.896 0
0 0 -128.519

6.76174 -1509.75 0
-1509.75 -1607.55 0
0 0 -480.237

-791.029 4911.86 0
4911.86 -826.702 0
0 0 -485.319

-3889.8 213.802 0
213.802 7743.78 0
0 0 1156.19

466.84 1282.18 0
1282.18 -738.174 0
0 0 -81.4001

-2508.83 4108.13 0
4108.13 4888.67 0
0 0 713.954

-1234.65 -3902.66 0
-3902.66 2102.88 0
0 0 260.469

-1400.91 -2946.88 0
-2946.88 8822.92 0
0 0 2226.6

4780.27 -4201.64 0
-4201.64 5077.77 0
0 0 2957.41

6255.91 -4777.46 0
-4777.46 -2435.99 0
0 0 1145.98

4641.73 -6528.45 0
-6528.45 2544.98 0
0 0 2156.02

-1710.57 -6909.12 0
-6909.12 -4893.53 0
0 0 -1981.23

1037.35 -4201.95 0
-4201.95 2126.07 0
0 0 949.026

10332.2 -6668.85 0
-6668.85 3896.29 0
0 0 4268.54

48.6773 -5987.88 0
-5987.88 -4827.94 0
0 0 -1433.78

3982.14 -1495.46 0
-1495.46 1079.23 0
0 0 1518.41

1039.11 1085.18 0
1085.18 -1755.33 0
0 0 -214.867

3763.89 -2154.69 0
-2154.69 2441.03 0
0 0 1861.47

721.19 52.0327 0
52.0327 3633.36 0
0 0 1306.37

-9393.15 3471.93 0
3471.93 843.842 0
0 0 -2564.79

4018.68 -646.207 0
-646.207 4572.94 0
0 0 2577.49

1152.38 5177.92 0
5177.92 5367.29 0
0 0 1955.9

7247.97 2354.58 0
2354.58 5970.05 0
0 0 3965.4

-881.167 -484.452 0
-484.452 -1122.55 0
0 0 -601.114

3272.95 -1883.64 0
-1883.64 3556.28 0
0 0 2048.77

-6486.47 -737.303 0
-737.303 3181.14 0
0 0 -991.598

-8239.44 -142.468 0
-142.468 2291.37 0
0 0 -1784.42

3528.91 -2672.95 0
-2672.95 3456.32 0
0 0 2095.57

-4814.18 -2531.02 0
-2531.02 -4906.46 0
0 0 -2916.19

10074.8 1155.84 0
1155.84 699.766 0
0 0 3232.36

-1940.72 -3643.16 0
-3643.16 6260.38 0
0 0 1295.9

-918.513 -3398.69 0
-3398.69 -1551.33 0
0 0 -740.954

-734.88 -2492.72 0
-2492.72 10448 0
0 0 2913.93

1331.07 -2559.08 0
-2559.08 4843.67 0
0 0 1852.42

3278.68 -556.415 0
-556.415 3207.55 0
0 0 1945.87

-630.335 2718.94 0
2718.94 3180.62 0
0 0 765.087

-5523.26 -1151.89 0
-1151.89 2678.46 0
0 0 -853.442

-1486.91 548.863 0
548.863 728.46 0
0 0 -227.534

-4977.53 -1927.99 0
-1927.99 -3747.2 0
0 0 -2617.42

-2581.48 115.75 0
115.75 1641.43 0
0 0 -282.015

763.002 1054.41 0
1054.41 -4791.84 0
0 0 -1208.65

6152.3 875.468 0
875.468 2342.5 0
0 0 2548.44

-2672.3 -2375.92 0
-2375.92 4821.91 0
0 0 644.882

-234.425 -1821.25 0
-1821.25 -7121.87 0
0 0 -2206.89

1110.08 327.737 0
327.737 2441.02 0
0 0 1065.33

-2318.94 -4455.96 0
-4455.96 -911.247 0
0 0 -969.057

-2206.06 -594.522 0
-594.522 -839.402 0
0 0 -913.638

-690.875 371.478 0
371.478 8098.82 0
0 0 2222.38

-536.319 -331.564 0
-331.564 5523.41 0
0 0 1496.13

944.32 2685.49 0
2685.49 -3434.27 0
0 0 -746.984

2086.17 1416.46 0
1416.46 885.62 0
0 0 891.537

TENSORS velocity_gradient double
5.12639 18.0389 0
-21.3193 -0.496685 0
0 0 0

2.89412 18.8782 0
-20.2885 0.62638 0
0 0 0

3.27221 19.4086 0
-22.5812 -0.436161 0
0 0 0

3.83869 17.7482 0
-19.5719 0.74745 0
0 0 0

-1.68386 16.1652 0
-19.1358 -0.737058 0
0 0 0

-2.47677 17.6232 0
-16.3185 3.77232 0
0 0 0

1.89303 13.667 0
-19.6691 0.543757 0
0 0 0

-3.54474 10.8604 0
-14.5645 0.795612 0
0 0 0

-2.64486 18.5607 0
-13.2911 5.65009 0
0 0 0

-2.00844 19.5239 0
-13.5084 6.14793 0
0 0 0

-3.45521 11.1712 0
-14.2083 2.03208 0
0 0 0

-0.671713 15.2613 0
-12.0714 3.98019 0
0 0 0

-0.338426 19.0143 0
-17.6468 2.23611 0
0 0 0

-0.648346 18.0533 0
-19.3467 -3.03489 0
0 0 0

0.590429 18.6612 0
-12.3343 0.627032 0
0 0 0

-3.00805 16.6438 0
-14.7008 -5.66412 0
0 0 0

1.36282 24.0011 0
-22.4409 -2.42853 0
0 0 0

5.63983 26.6871 0
-21.1305 1.31007 0
0 0 0

1.88847 25.4787 0
-28.7831 -1.15482 0
0 0 0

3.17088 27.8656 0
-26.167 3.71425 0
0 0 0

5.5228 18.4412 0
-19.995 2.67625 0
0 0 0

-3.86921 10.9757 0
-15.8552 1.2544 0
0 0 0

-3.37215 29.9 0
-17.5692 7.67127 0
0 0 0

-4.28664 30.4393 0
-16.4838 7.98391 0
0 0 0

-3.78239 11.2928 0
-15.5098 2.51555 0
0 0 0

-4.8134 14.2759 0
-11.6824 3.36699 0
0 0 0

-7.49518 30.5252 0
-13.6834 7.97709 0
0 0 0

-8.98808 22.3157 0
-12.1241 5.32302 0
0 0 0

-2.98655 19.4485 0
-11.4614 3.9929 0
0 0 0

-0.936552 22.9034 0
-10.1615 5.92242 0
0 0 0

-6.11068 21.5512 0
-13.2141 4.58515 0
0 0 0

-2.32865 23.5968 0
-13.5706 7.62047 0
0 0 0

1.69065 29.0764 0
-28.5515 5.14237 0
0 0 0

1.38031 28.2255 0
-29.5828 2.68303 0
0 0 0

2.72171 28.7531 0
-25.4024 4.15483 0
0 0 0

0.345346 27.4154 0
-22.7795 1.86006 0
0 0 0

-4.77263 29.4019 0
-16.7858 6.99414 0
0 0 0

-4.77547 30.6696 0
-16.6286 8.05212 0
0 0 0

-2.36359 24.49 0
-18.7773 3.69404 0
0 0 0

-3.44129 21.4893 0
-16.0521 5.6799 0
0 0 0

-7.48574 29.8393 0
-11.3253 7.70078 0
0 0 0

-8.15914 27.9304 0
-11.592 6.94476 0
0 0 0

-4.8846 18.3527 0
-10.112 4.40136 0
0 0 0

-4.26924 23.5855 0
-10.1633 5.21143 0
0 0 0

-1.58664 25.5889 0
-13.8954 4.84523 0
0 0 0

-2.7151 22.5778 0
-15.3923 1.14737 0
0 0 0

1.71561 24.2737 0
-9.4418 3.07146 0
0 0 0

0.601037 21.0745 0
-10.945 -1.24321 0
0 0 0

2.54722 15.102 0
-22.3807 3.61879 0
0 0 0

1.05754 19.5822 0
-21.5856 1.71843 0
0 0 0

1.12885 15.5489 0
-19.2835 2.57075 0
0 0 0

-0.403261 17.1323 0
-21.1852 1.33898 0
0 0 0

0.822616 23.1619 0
-21.2725 4.33802 0
0 0 0

0.648188 20.0257 0
-7.5748 5.66505 0
0 0 0

0.252049 18.9351 0
-21.4138 0.71008 0
0 0 0

3.9532 18.8705 0
-5.9903 1.55334 0
0 0 0

-0.728886 15.4102 0
-7.75214 3.08725 0
0 0 0

0.295564 12.5282 0
-6.07744 0.632741 0
0 0 0

3.2811 16.5319 0
-5.85885 2.84161 0
0 0 0

-1.82444 13.0576 0
-4.10259 1.24443 0
0 0 0

1.48719 15.279 0
-6.35484 -1.16981 0
0 0 0

-0.390909 17.4452 0
-10.2073 -2.34594 0
0 0 0

-1.61821 16.1196 0
-4.48858 -1.675 0
0 0 0

1.41914 16.5425 0
-13.5734 -1.96765 0
0 0 0

SCALARS active double 1
LOOKUP_TABLE default
1
1
1
1
1
1
1
1
1
1
1
1
1
1
1
1
1
1
1
1
1
1
1
1
1
1
1
1
1
1
1
1
1
1
1
1
1
1
1
1
1
1
1
1
1
1
1
1
1
1
1
1
1
1
1
1
1
1
1
1
1
1
1
1
SCALARS extent double 1
LOOKUP_TABLE default
0.0125
0.0125
0.0125
0.0125
0.0125
0.0125
0.0125
0.0125
0.0125
0.0125
0.0125
0.0125
0.0125
0.0125
0.0125
0.0125
0.0125
0.0125
0.0125
0.0125
0.0125
0.0125
0.0125
0.0125
0.0125
0.0125
0.0125
0.0125
0.0125
0.0125
0.0125
0.0125
0.0125
0.0125
0.0125
0.0125
0.0125
0.0125
0.0125
0.0125
0.0125
0.0125
0.0125
0.0125
0.0125
0.0125
0.0125
0.0125
0.0125
0.0125
0.0125
0.0125
0.0125
0.0125
0.0125
0.0125
0.0125
0.0125
0.0125
0.0125
0.0125
0.0125
0.0125
0.0125
SCALARS pressure double 1
LOOKUP_TABLE default
-3021.45
-3605.17
-2082.98
-3197.52
-2288.08
-1906.45
-622.545
-1060.56
-1678.72
-1419.35
57.9244
1235.61
-2065.07
185.638
693.675
701.017
-1670.06
117.578
-1031.27
-376.233
-3216.2
-4271.82
-1655.3
-3114.24
2861.78
-1370.81
-6165.67
2071.01
-2193.26
310.363
-2688.79
-1886.97
3704.7
-3723.04
-2825.19
-5727.81
868.276
-2959.34
1432.31
2577.5
-3026.93
4212.28
-4668.96
-1871.86
1070.27
-4209.01
-2675.72
-2810.7
-1105.13
1232.75
328.66
3780.72
407.355
1745.83
-3681.08
-931.497
3187.73
-1538.81
1399.75
1319.7
-3210.11
-2161.07
1078.98
-1287.78
SCALARS density double 1
LOOKUP_TABLE default
964.392
957.66
975.314
962.357
972.917
977.382
992.557
987.354
980.057
983.112
1000.7
1014.94
975.524
1002.23
1008.36
1008.45
980.159
1001.41
987.701
995.495
962.141
950.03
980.332
963.319
1034.94
983.685
928.683
1025.16
974.024
1003.73
968.249
977.611
1045.46
956.307
966.666
933.575
1010.47
965.111
1017.34
1031.41
964.329
1051.85
945.513
977.788
1012.93
950.746
968.401
966.834
986.826
1014.9
1003.95
1046.41
1004.9
1021.17
956.788
988.884
1038.99
981.704
1016.94
1015.96
962.211
974.401
1013.03
984.665
