# vtk DataFile Version 3.0
Frame: 56, Time: 0.934
ASCII
DATASET UNSTRUCTURED_GRID
POINTS 64 double
0.274254 0.0917396 0 
0.248275 0.083698 0 
0.265645 0.114057 0 
0.240802 0.106206 0 
0.224961 0.0753926 0 
0.200712 0.0702942 0 
0.219282 0.100168 0 
0.195159 0.0958175 0 
0.182725 0.0636435 0 
0.16629 0.0526463 0 
0.174106 0.0880444 0 
0.153743 0.0763821 0 
0.144222 0.0475491 0 
0.12883 0.0376969 0 
0.12953 0.0675285 0 
0.11113 0.0535432 0 
0.255463 0.137781 0 
0.233043 0.130381 0 
0.252892 0.162604 0 
0.228465 0.155264 0 
0.212602 0.125713 0 
0.18959 0.120098 0 
0.206095 0.151252 0 
0.183079 0.142961 0 
0.166756 0.109431 0 
0.145445 0.0978883 0 
0.159462 0.13204 0 
0.135743 0.1226 0 
0.121245 0.089389 0 
0.0983991 0.0787432 0 
0.112336 0.113226 0 
0.0898818 0.104008 0 
0.247448 0.188428 0 
0.222781 0.178746 0 
0.238742 0.212141 0 
0.214675 0.202424 0 
0.199319 0.174088 0 
0.175783 0.165778 0 
0.191947 0.198012 0 
0.167457 0.190722 0 
0.152759 0.155877 0 
0.130328 0.14729 0 
0.14414 0.179478 0 
0.121911 0.172016 0 
0.106521 0.136321 0 
0.08334 0.127713 0 
0.097131 0.161319 0 
0.0731494 0.153078 0 
0.231158 0.235285 0 
0.207096 0.225748 0 
0.221227 0.257311 0 
0.198185 0.250372 0 
0.183417 0.223084 0 
0.159353 0.213739 0 
0.174007 0.24758 0 
0.150179 0.236733 0 
0.135717 0.202659 0 
0.112499 0.195906 0 
0.127028 0.227345 0 
0.104111 0.219859 0 
0.0891724 0.185422 0 
0.0655156 0.177526 0 
0.0822423 0.2089 0 
0.0588173 0.202433 0 
CELLS 64 128
1 0
1 1
1 2
1 3
1 4
1 5
1 6
1 7
1 8
1 9
1 10
1 11
1 12
1 13
1 14
1 15
1 16
1 17
1 18
1 19
1 20
1 21
1 22
1 23
1 24
1 25
1 26
1 27
1 28
1 29
1 30
1 31
1 32
1 33
1 34
1 35
1 36
1 37
1 38
1 39
1 40
1 41
1 42
1 43
1 44
1 45
1 46
1 47
1 48
1 49
1 50
1 51
1 52
1 53
1 54
1 55
1 56
1 57
1 58
1 59
1 60
1 61
1 62
1 63
CELL_TYPES 64
1
1
1
1
1
1
1
1
1
1
1
1
1
1
1
1
1
1
1
1
1
1
1
1
1
1
1
1
1
1
1
1
1
1
1
1
1
1
1
1
1
1
1
1
1
1
1
1
1
1
1
1
1
1
1
1
1
1
1
1
1
1
1
1
POINT_DATA 64
VECTORS displacement double
-0.138246 -0.32076 0 
-0.164225 -0.353802 0 
-0.171855 -0.298443 0 
-0.196698 -0.331294 0 
-0.187539 -0.387107 0 
-0.211788 -0.417206 0 
-0.218218 -0.362332 0 
-0.242341 -0.391682 0 
-0.229775 -0.448857 0 
-0.24621 -0.484854 0 
-0.263394 -0.424456 0 
-0.283757 -0.461118 0 
-0.268278 -0.514951 0 
-0.28367 -0.549803 0 
-0.30797 -0.494971 0 
-0.32637 -0.533957 0 
-0.207037 -0.274719 0 
-0.229457 -0.307119 0 
-0.234608 -0.249896 0 
-0.259035 -0.282236 0 
-0.249898 -0.336787 0 
-0.27291 -0.367402 0 
-0.281405 -0.311248 0 
-0.304421 -0.344539 0 
-0.295744 -0.403069 0 
-0.317055 -0.439612 0 
-0.328038 -0.38046 0 
-0.351757 -0.4149 0 
-0.341255 -0.473111 0 
-0.364101 -0.508757 0 
-0.375164 -0.449274 0 
-0.397618 -0.483492 0 
-0.265052 -0.224072 0 
-0.289719 -0.258754 0 
-0.298758 -0.200359 0 
-0.322825 -0.235076 0 
-0.313181 -0.288412 0 
-0.336717 -0.321722 0 
-0.345553 -0.264488 0 
-0.370043 -0.296778 0 
-0.359741 -0.356623 0 
-0.382172 -0.39021 0 
-0.39336 -0.333022 0 
-0.415589 -0.365484 0 
-0.405979 -0.426179 0 
-0.42916 -0.459787 0 
-0.440369 -0.401181 0 
-0.464351 -0.434422 0 
-0.331342 -0.177215 0 
-0.355404 -0.211752 0 
-0.366273 -0.155189 0 
-0.389315 -0.187128 0 
-0.379083 -0.239416 0 
-0.403147 -0.273761 0 
-0.413493 -0.21492 0 
-0.437321 -0.250767 0 
-0.426783 -0.309841 0 
-0.450001 -0.341594 0 
-0.460472 -0.285155 0 
-0.483389 -0.317641 0 
-0.473328 -0.377078 0 
-0.496984 -0.409974 0 
-0.505258 -0.3536 0 
-0.528683 -0.385067 0 
VECTORS velocity double
0.395803 1.19816 0 
0.0626681 2.15175 0 
0.406522 1.27373 0 
0.567195 1.79933 0 
0.114224 2.07408 0 
-0.885129 1.90392 0 
0.781566 1.66632 0 
0.0315076 2.07843 0 
-0.0981095 0.9986 0 
-0.648695 0.549982 0 
0.768684 1.4455 0 
0.103458 1.22474 0 
0.350878 0.605406 0 
0.172128 0.236722 0 
0.51421 1.33291 0 
0.207503 0.430228 0 
0.27688 1.39142 0 
0.36277 1.82869 0 
0.0136982 2.18775 0 
-0.179589 1.93935 0 
0.883814 1.85549 0 
0.766406 1.85348 0 
-0.0613173 1.78354 0 
-0.178076 1.69957 0 
0.858193 1.22182 0 
0.40359 0.962449 0 
0.0372752 1.55755 0 
0.0146691 1.81384 0 
0.502471 0.706118 0 
0.79327 0.740184 0 
0.524244 1.41364 0 
0.688742 1.05275 0 
-0.181511 2.28739 0 
-0.0347042 1.63647 0 
-0.69309 2.00523 0 
-0.0897838 1.58581 0 
0.230741 1.63302 0 
0.312848 1.52257 0 
0.0115186 1.72536 0 
-0.107756 1.66929 0 
0.470398 1.31585 0 
0.658218 1.5928 0 
-0.121655 1.2612 0 
-0.0553019 1.41875 0 
0.723821 0.705146 0 
0.708718 0.0999633 0 
0.515936 1.31911 0 
0.805645 0.130299 0 
-0.788329 2.57533 0 
-0.372271 1.6992 0 
-1.34842 2.39724 0 
-1.14249 1.71219 0 
-0.186004 1.58706 0 
0.0709078 1.80571 0 
-1.0093 1.42712 0 
-0.720922 1.42911 0 
0.00466875 1.21144 0 
-0.24112 1.00469 0 
-0.967142 0.852024 0 
-0.57256 1.3501 0 
0.469091 0.967017 0 
0.14988 -0.000619259 0 
-0.363237 0.777633 0 
-0.479521 -0.116597 0 
SCALARS mass double 1
LOOKUP_TABLE default
0.625
0.625
0.625
0.625
0.625
0.625
0.625
0.625
0.625
0.625
0.625
0.625
0.625
0.625
0.625
0.625
0.625
0.625
0.625
0.625
0.625
0.625
0.625
0.625
0.625
0.625
0.625
0.625
0.625
0.625
0.625
0.625
0.625
0.625
0.625
0.625
0.625
0.625
0.625
0.625
0.625
0.625
0.625
0.625
0.625
0.625
0.625
0.625
0.625
0.625
0.625
0.625
0.625
0.625
0.625
0.625
0.625
0.625
0.625
0.625
0.625
0.625
0.625
0.625
SCALARS volume double 1
LOOKUP_TABLE default
0.000636389
0.00062471
0.000615822
0.000593812
0.000614978
0.00063485
0.000604688
0.000594919
0.000531231
0.000551381
0.000539486
0.000580799
0.000561465
0.000468141
0.00055764
0.000617929
0.000620904
0.000610803
0.000648369
0.000640729
0.000613669
0.000589865
0.00059506
0.000590354
0.000607483
0.000624891
0.000602539
0.000633305
0.000605283
0.000640048
0.000585266
0.00065165
0.000658805
0.000618086
0.000637146
0.00059703
0.000645224
0.000641345
0.00060472
0.000612919
0.000617291
0.000631082
0.000618542
0.000643319
0.000601604
0.000634357
0.00065454
0.00063241
0.000602225
0.000638197
0.000632079
0.000608709
0.000631801
0.000631546
0.000627366
0.000636239
0.000608161
0.000627755
0.000607635
0.000630973
0.000609353
0.000619995
0.00061814
0.000630289
VECTORS momentum double
0.247377 0.748851 0 
0.0391676 1.34484 0 
0.254076 0.796079 0 
0.354497 1.12458 0 
0.0713902 1.2963 0 
-0.553205 1.18995 0 
0.488479 1.04145 0 
0.0196922 1.29902 0 
-0.0613184 0.624125 0 
-0.405434 0.343739 0 
0.480428 0.903436 0 
0.0646612 0.765464 0 
0.219298 0.378379 0 
0.10758 0.147951 0 
0.321381 0.833066 0 
0.129689 0.268893 0 
0.17305 0.869641 0 
0.226731 1.14293 0 
0.00856138 1.36734 0 
-0.112243 1.21209 0 
0.552384 1.15968 0 
0.479004 1.15843 0 
-0.0383233 1.11471 0 
-0.111297 1.06223 0 
0.536371 0.763636 0 
0.252244 0.60153 0 
0.023297 0.97347 0 
0.00916816 1.13365 0 
0.314045 0.441324 0 
0.495794 0.462615 0 
0.327652 0.883524 0 
0.430464 0.657968 0 
-0.113445 1.42962 0 
-0.0216901 1.02279 0 
-0.433181 1.25327 0 
-0.0561148 0.991134 0 
0.144213 1.02064 0 
0.19553 0.951609 0 
0.00719909 1.07835 0 
-0.0673476 1.04331 0 
0.293999 0.822405 0 
0.411386 0.995502 0 
-0.0760341 0.788247 0 
-0.0345637 0.88672 0 
0.452388 0.440716 0 
0.442949 0.0624771 0 
0.32246 0.824443 0 
0.503528 0.0814369 0 
-0.492706 1.60958 0 
-0.232669 1.062 0 
-0.842761 1.49827 0 
-0.714053 1.07012 0 
-0.116253 0.991913 0 
0.0443174 1.12857 0 
-0.630811 0.891951 0 
-0.450577 0.893193 0 
0.00291797 0.757152 0 
-0.1507 0.62793 0 
-0.604464 0.532515 0 
-0.35785 0.843813 0 
0.293182 0.604386 0 
0.093675 -0.000387037 0 
-0.227023 0.48602 0 
-0.299701 -0.0728731 0 
VECTORS body_force double
0 -9.81 0 
0 -9.81 0 
0 -9.81 0 
0 -9.81 0 
0 -9.81 0 
0 -9.81 0 
0 -9.81 0 
0 -9.81 0 
0 -9.81 0 
0 -9.81 0 
0 -9.81 0 
0 -9.81 0 
0 -9.81 0 
0 -9.81 0 
0 -9.81 0 
0 -9.81 0 
0 -9.81 0 
0 -9.81 0 
0 -9.81 0 
0 -9.81 0 
0 -9.81 0 
0 -9.81 0 
0 -9.81 0 
0 -9.81 0 
0 -9.81 0 
0 -9.81 0 
0 -9.81 0 
0 -9.81 0 
0 -9.81 0 
0 -9.81 0 
0 -9.81 0 
0 -9.81 0 
0 -9.81 0 
0 -9.81 0 
0 -9.81 0 
0 -9.81 0 
0 -9.81 0 
0 -9.81 0 
0 -9.81 0 
0 -9.81 0 
0 -9.81 0 
0 -9.81 0 
0 -9.81 0 
0 -9.81 0 
0 -9.81 0 
0 -9.81 0 
0 -9.81 0 
0 -9.81 0 
0 -9.81 0 
0 -9.81 0 
0 -9.81 0 
0 -9.81 0 
0 -9.81 0 
0 -9.81 0 
0 -9.81 0 
0 -9.81 0 
0 -9.81 0 
0 -9.81 0 
0 -9.81 0 
0 -9.81 0 
0 -9.81 0 
0 -9.81 0 
0 -9.81 0 
0 -9.81 0 
TENSORS cauchy_stress double
3745.34 3419.75 0
3419.75 -272.633 0
0 0 1041.81

1232.1 2295.6 0
2295.6 -1321.21 0
0 0 -26.735

-781.797 -2379.09 0
-2379.09 -2063.24 0
0 0 -853.511

-8747.04 3425.52 0
3425.52 -1097.1 0
0 0 -2953.24

-2654.93 -4676.73 0
-4676.73 -453.661 0
0 0 -932.578

2110.39 -4830.07 0
-4830.07 896.782 0
0 0 902.152

-9170.57 3739.06 0
3739.06 2816.86 0
0 0 -1906.11

-9586.43 -1151.57 0
-1151.57 100.589 0
0 0 -2845.75

-20710.3 -13012.1 0
-13012.1 -10550.2 0
0 0 -9378.15

-5480.18 -16606.2 0
-16606.2 -18620.9 0
0 0 -7230.32

-21391.8 5196.59 0
5196.59 -6903.22 0
0 0 -8488.52

-6938.74 -2487.86 0
-2487.86 -7166.49 0
0 0 -4231.57

3667.82 -15219.6 0
-15219.6 -24283.5 0
0 0 -6184.7

-4739.46 -7788.01 0
-7788.01 -50833.8 0
0 0 -16672

-13735.1 3128.38 0
3128.38 -8195.37 0
0 0 -6579.13

-3536.59 4333.35 0
4333.35 1348.43 0
0 0 -656.448

-6905.01 -5393.44 0
-5393.44 5640.42 0
0 0 -379.377

-4930.79 -5171.34 0
-5171.34 512.209 0
0 0 -1325.57

1566.86 -3384.35 0
-3384.35 5492.55 0
0 0 2117.82

3869.05 -758.4 0
-758.4 910.684 0
0 0 1433.92

-6774.49 -5613.99 0
-5613.99 3256 0
0 0 -1055.55

-6429.92 -2251.49 0
-2251.49 -4696.49 0
0 0 -3337.92

-6745.96 -1520.7 0
-1520.7 -2694.28 0
0 0 -2832.07

-4884.26 4066.48 0
4066.48 -6082.82 0
0 0 -3290.12

354.123 -892.514 0
-892.514 -5821.03 0
0 0 -1640.07

-722.664 -5313.01 0
-5313.01 689.104 0
0 0 -10.068

-6557.12 5030.07 0
5030.07 -481.273 0
0 0 -2111.52

245.005 4608.03 0
4608.03 2293.67 0
0 0 761.602

-5120.23 3630.12 0
3630.12 -1044.22 0
0 0 -1849.34

-2315.14 -1229.92 0
-1229.92 6890.48 0
0 0 1372.6

-10215.1 4535.09 0
4535.09 -2416.62 0
0 0 -3789.52

140.74 -345.513 0
-345.513 7889.28 0
0 0 2409

4240.42 -3202.48 0
-3202.48 5889.47 0
0 0 3038.97

1051.26 -2287.1 0
-2287.1 -3190.5 0
0 0 -641.771

3525.81 -2513.96 0
-2513.96 175.661 0
0 0 1110.44

-3052.19 -4730.6 0
-4730.6 -5752.33 0
0 0 -2641.36

4624.72 -3759.02 0
-3759.02 1499.51 0
0 0 1837.27

4458.52 -4783.05 0
-4783.05 505.99 0
0 0 1489.35

-2170.72 -287.941 0
-287.941 -4172.74 0
0 0 -1903.04

-2918.01 5721.87 0
5721.87 -835.71 0
0 0 -1126.12

3214.55 -2494.96 0
-2494.96 -5601.33 0
0 0 -716.035

2003.02 -540.46 0
-540.46 -140.565 0
0 0 558.736

-2156.47 1524.35 0
1524.35 158.996 0
0 0 -599.243

132.85 1624.53 0
1624.53 5422.79 0
0 0 1666.69

-3111.58 1994.97 0
1994.97 -4225.29 0
0 0 -2201.06

-2076.31 2566.91 0
2566.91 4933.9 0
0 0 857.277

5430 2785.92 0
2785.92 3450.89 0
0 0 2664.27

-854.598 -4534.99 0
-4534.99 3121.19 0
0 0 679.977

-5776.6 403.127 0
403.127 -1361.81 0
0 0 -2141.52

3167.81 -3102.97 0
-3102.97 850.556 0
0 0 1205.51

-72.7548 662.758 0
662.758 2238.65 0
0 0 649.769

-2088.94 -3649.79 0
-3649.79 -2990.07 0
0 0 -1523.7

1299.82 -829.66 0
-829.66 781.39 0
0 0 624.362

1577.14 -1982.01 0
-1982.01 426.685 0
0 0 601.147

-268.813 1705.91 0
1705.91 995.475 0
0 0 217.999

2203.76 3477.46 0
3477.46 1223.62 0
0 0 1028.21

-890.113 -1662.7 0
-1662.7 -4362.28 0
0 0 -1575.72

989.396 920.104 0
920.104 -143.473 0
0 0 253.777

-4598.68 -143.762 0
-143.762 -820.035 0
0 0 -1625.61

-637.989 1426.45 0
1426.45 2467.14 0
0 0 548.744

-1613.43 -1473.65 0
-1473.65 -3262.21 0
0 0 -1462.69

-2684.4 -2410.9 0
-2410.9 1138.36 0
0 0 -463.813

-4053.14 -783.337 0
-783.337 1930.63 0
0 0 -636.753

765.125 1150.45 0
1150.45 855.423 0
0 0 486.164

TENSORS velocity_gradient double
-1.44933 0.11382 0
-10.9018 -2.93738 0
0 0 0

2.03464 5.493 0
-2.23079 -5.47305 0
0 0 0

-2.86544 -4.6305 0
-6.98621 6.13967 0
0 0 0

0.177612 -3.76372 0
-0.758426 1.4299 0
0 0 0

4.19989 9.27938 0
4.84949 -0.781105 0
0 0 0

0.973256 12.2883 0
9.02363 4.64861 0
0 0 0

0.654048 4.31065 0
-0.304121 0.573655 0
0 0 0

-0.597988 11.806 0
8.86917 5.49932 0
0 0 0

-4.85421 10.9523 0
13.5267 7.22124 0
0 0 0

-5.64502 5.34815 0
13.8443 13.1074 0
0 0 0

-1.69187 9.79486 0
10.5994 8.29261 0
0 0 0

-3.51363 7.24818 0
10.3104 10.4046 0
0 0 0

-5.59978 3.24128 0
1.72639 13.7441 0
0 0 0

-4.66925 4.15081 0
0.973241 14.4005 0
0 0 0

-5.27436 5.44057 0
3.35994 8.6056 0
0 0 0

-5.79325 4.8903 0
1.82417 8.40835 0
0 0 0

-1.42178 -5.16665 0
-2.21235 4.29111 0
0 0 0

0.0526694 -5.49815 0
1.09558 1.72478 0
0 0 0

-1.4227 -9.7521 0
2.04593 4.19797 0
0 0 0

-0.349041 -7.2003 0
3.27752 1.83799 0
0 0 0

0.0498802 -5.51044 0
0.683202 -0.0918204 0
0 0 0

-0.579545 -5.15404 0
7.37758 -0.247522 0
0 0 0

-0.211815 -5.64248 0
2.9842 -0.285157 0
0 0 0

-1.35638 -4.9369 0
5.37432 0.312407 0
0 0 0

-0.224106 -4.37754 0
8.29417 1.75486 0
0 0 0

-3.30774 4.10959 0
7.20858 8.63175 0
0 0 0

-0.991158 -4.13326 0
6.31614 2.38481 0
0 0 0

-4.31764 -3.09499 0
8.58329 2.41834 0
0 0 0

-3.96032 4.93026 0
6.03302 7.56752 0
0 0 0

-3.32788 3.86892 0
1.68725 4.38332 0
0 0 0

-3.86296 -1.92743 0
8.10204 1.18257 0
0 0 0

-2.78126 -0.502296 0
5.564 -0.718225 0
0 0 0

-3.25198 -9.31894 0
5.54421 3.66872 0
0 0 0

-2.22652 -7.21555 0
5.25103 1.51986 0
0 0 0

-3.4382 -11.9235 0
7.98542 6.5362 0
0 0 0

-3.69421 -10.4913 0
7.22055 2.92242 0
0 0 0

-1.28035 -5.63547 0
4.81738 -0.185948 0
0 0 0

-1.13169 -6.15932 0
4.71711 -0.564983 0
0 0 0

-0.104711 -7.37739 0
5.04385 0.223912 0
0 0 0

-0.21952 -6.4576 0
4.89266 -0.622385 0
0 0 0

-2.50059 -6.66716 0
6.25992 -0.176981 0
0 0 0

-5.355 -4.02945 0
9.79389 1.69238 0
0 0 0

-2.46916 -7.78553 0
9.31769 -0.606291 0
0 0 0

-3.3537 -10.3315 0
9.61483 -0.103798 0
0 0 0

-4.94065 -1.65146 0
9.379 0.858682 0
0 0 0

-1.55079 -2.31306 0
10.9383 -3.34292 0
0 0 0

-1.13989 -12.7365 0
14.5579 0.405004 0
0 0 0

-0.27231 -10.2318 0
15.6976 -1.19502 0
0 0 0

-1.72783 -12.4664 0
9.81329 5.95604 0
0 0 0

-2.41463 -14.2636 0
9.07931 4.03543 0
0 0 0

-1.13875 -8.55572 0
9.77923 -1.5164 0
0 0 0

-2.21571 -11.3086 0
9.51781 2.91206 0
0 0 0

-1.44658 -13.6053 0
6.77067 2.07521 0
0 0 0

-0.752497 -11.7752 0
5.99908 0.0407425 0
0 0 0

-3.10778 -12.086 0
8.79119 1.3979 0
0 0 0

-1.31411 -11.325 0
7.59325 -0.335736 0
0 0 0

-0.274875 -10.1796 0
8.81515 -0.197969 0
0 0 0

-0.666917 -11.3699 0
9.05546 0.19169 0
0 0 0

0.124518 -11.1675 0
7.62776 0.375001 0
0 0 0

-0.0302851 -11.219 0
9.17141 1.47051 0
0 0 0

0.393269 -13.0232 0
15.8041 0.502972 0
0 0 0

0.253777 -13.4641 0
15.882 0.749311 0
0 0 0

0.0691524 -10.0086 0
15.8823 1.25895 0
0 0 0

0.329417 -10.0294 0
15.7873 0.656021 0
0 0 0

SCALARS active double 1
LOOKUP_TABLE default
1
1
1
1
1
1
1
1
1
1
1
1
1
1
1
1
1
1
1
1
1
1
1
1
1
1
1
1
1
1
1
1
1
1
1
1
1
1
1
1
1
1
1
1
1
1
1
1
1
1
1
1
1
1
1
1
1
1
1
1
1
1
1
1
SCALARS extent double 1
LOOKUP_TABLE default
0.0125
0.0125
0.0125
0.0125
0.0125
0.0125
0.0125
0.0125
0.0125
0.0125
0.0125
0.0125
0.0125
0.0125
0.0125
0.0125
0.0125
0.0125
0.0125
0.0125
0.0125
0.0125
0.0125
0.0125
0.0125
0.0125
0.0125
0.0125
0.0125
0.0125
0.0125
0.0125
0.0125
0.0125
0.0125
0.0125
0.0125
0.0125
0.0125
0.0125
0.0125
0.0125
0.0125
0.0125
0.0125
0.0125
0.0125
0.0125
0.0125
0.0125
0.0125
0.0125
0.0125
0.0125
0.0125
0.0125
0.0125
0.0125
0.0125
0.0125
0.0125
0.0125
0.0125
0.0125
SCALARS pressure double 1
LOOKUP_TABLE default
-1504.84
38.6172
1232.85
4265.79
1347.06
-1303.11
2753.27
4110.53
13546.2
10443.8
12261.2
6112.27
8933.46
24081.8
9503.18
948.202
547.989
1914.72
-3059.08
-2071.22
1524.68
4821.45
4090.77
4752.4
2368.99
14.5427
3049.97
-1100.09
2671.26
-1982.64
5473.75
-3479.67
-4389.62
927.003
-1603.97
3815.29
-2653.83
-2151.29
2748.83
1626.61
1034.27
-807.063
865.573
-2407.45
3179.31
-1238.29
-3848.39
-982.189
3093.31
-1741.29
-938.555
2200.91
-901.856
-868.323
-314.887
-1485.2
2276.04
-366.567
2348.11
-792.631
2112.78
669.953
919.754
-702.237
SCALARS density double 1
LOOKUP_TABLE default
982.104
1000.46
1014.9
1052.52
1016.3
984.484
1033.59
1050.56
1176.51
1133.52
1158.51
1076.1
1113.16
1335.07
1120.79
1011.44
1006.6
1023.24
963.957
975.452
1018.46
1059.56
1050.31
1058.69
1028.84
1000.17
1037.28
986.886
1032.57
976.489
1067.89
959.104
948.688
1011.19
980.936
1046.85
968.656
974.515
1033.54
1019.71
1012.49
990.362
1010.44
971.524
1038.89
985.25
954.869
988.283
1037.82
979.321
988.801
1026.76
989.236
989.634
996.228
982.336
1027.69
995.611
1028.58
990.534
1025.68
1008.07
1011.1
991.609
