# vtk DataFile Version 3.0
Frame: 22, Time: 0.367
ASCII
DATASET UNSTRUCTURED_GRID
POINTS 64 double
0.537144 0.272971 0 
0.558086 0.28896 0 
0.552651 0.254015 0 
0.574456 0.270474 0 
0.578929 0.305644 0 
0.600476 0.321979 0 
0.595271 0.287117 0 
0.616359 0.303646 0 
0.62245 0.338158 0 
0.644565 0.353347 0 
0.638143 0.318504 0 
0.659496 0.333315 0 
0.66584 0.367548 0 
0.685831 0.382563 0 
0.680748 0.347669 0 
0.701508 0.361993 0 
0.569684 0.235091 0 
0.589033 0.251716 0 
0.587498 0.215993 0 
0.605613 0.233374 0 
0.609341 0.26684 0 
0.629869 0.282509 0 
0.626642 0.247728 0 
0.647364 0.26367 0 
0.652226 0.297335 0 
0.673413 0.311902 0 
0.668892 0.278928 0 
0.69059 0.293295 0 
0.695601 0.327106 0 
0.716456 0.341074 0 
0.712355 0.307843 0 
0.733592 0.322755 0 
0.606161 0.199558 0 
0.62438 0.21524 0 
0.623234 0.180834 0 
0.642851 0.196584 0 
0.644876 0.230465 0 
0.665973 0.246145 0 
0.663127 0.211918 0 
0.682093 0.226516 0 
0.687594 0.261421 0 
0.708894 0.275686 0 
0.704051 0.241167 0 
0.726604 0.2555 0 
0.73008 0.289025 0 
0.751278 0.303163 0 
0.746639 0.268419 0 
0.767929 0.281751 0 
0.640297 0.162408 0 
0.659937 0.177448 0 
0.655337 0.141796 0 
0.675061 0.156271 0 
0.679792 0.191662 0 
0.698978 0.207395 0 
0.695857 0.171518 0 
0.715487 0.187065 0 
0.719931 0.221708 0 
0.741958 0.233931 0 
0.733224 0.200248 0 
0.755036 0.21129 0 
0.762794 0.246593 0 
0.782654 0.260679 0 
0.777508 0.224403 0 
0.798005 0.239525 0 
CELLS 64 128
1 0
1 1
1 2
1 3
1 4
1 5
1 6
1 7
1 8
1 9
1 10
1 11
1 12
1 13
1 14
1 15
1 16
1 17
1 18
1 19
1 20
1 21
1 22
1 23
1 24
1 25
1 26
1 27
1 28
1 29
1 30
1 31
1 32
1 33
1 34
1 35
1 36
1 37
1 38
1 39
1 40
1 41
1 42
1 43
1 44
1 45
1 46
1 47
1 48
1 49
1 50
1 51
1 52
1 53
1 54
1 55
1 56
1 57
1 58
1 59
1 60
1 61
1 62
1 63
CELL_TYPES 64
1
1
1
1
1
1
1
1
1
1
1
1
1
1
1
1
1
1
1
1
1
1
1
1
1
1
1
1
1
1
1
1
1
1
1
1
1
1
1
1
1
1
1
1
1
1
1
1
1
1
1
1
1
1
1
1
1
1
1
1
1
1
1
1
POINT_DATA 64
VECTORS displacement double
0.0246439 -0.339529 0 
0.0455857 -0.34854 0 
0.0151515 -0.358485 0 
0.0369563 -0.367026 0 
0.0664292 -0.356856 0 
0.0879764 -0.365521 0 
0.0577712 -0.375383 0 
0.0788586 -0.383854 0 
0.10995 -0.374342 0 
0.132065 -0.384153 0 
0.100643 -0.393996 0 
0.121996 -0.404185 0 
0.15334 -0.394952 0 
0.173331 -0.404937 0 
0.143248 -0.414831 0 
0.164008 -0.425507 0 
0.00718378 -0.377409 0 
0.0265331 -0.385784 0 
-2.3801e-06 -0.396507 0 
0.0181133 -0.404126 0 
0.0468408 -0.39566 0 
0.0673692 -0.404991 0 
0.0391416 -0.414772 0 
0.0598636 -0.42383 0 
0.0897258 -0.415165 0 
0.110913 -0.425598 0 
0.081392 -0.433572 0 
0.10309 -0.444205 0 
0.133101 -0.435394 0 
0.153956 -0.446426 0 
0.124855 -0.454657 0 
0.146092 -0.464745 0 
-0.00633941 -0.412942 0 
0.0118801 -0.42226 0 
-0.0142665 -0.431666 0 
0.00535072 -0.440916 0 
0.0323756 -0.432035 0 
0.0534734 -0.441355 0 
0.0256272 -0.450582 0 
0.0445925 -0.460984 0 
0.0750936 -0.451079 0 
0.0963939 -0.461814 0 
0.066551 -0.471333 0 
0.0891045 -0.482 0 
0.11758 -0.473475 0 
0.138778 -0.484337 0 
0.109139 -0.494081 0 
0.130429 -0.505749 0 
-0.0222029 -0.450092 0 
-0.0025633 -0.460052 0 
-0.0321631 -0.470704 0 
-0.0124388 -0.481229 0 
0.017292 -0.470838 0 
0.0364783 -0.480105 0 
0.0083575 -0.490982 0 
0.0279871 -0.500435 0 
0.0574312 -0.490792 0 
0.0794578 -0.503569 0 
0.0457236 -0.512252 0 
0.0675355 -0.52621 0 
0.100294 -0.515907 0 
0.120154 -0.526821 0 
0.0900078 -0.538097 0 
0.110505 -0.547975 0 
VECTORS velocity double
1.82489 4.17286 0 
2.40504 3.59482 0 
0.794671 2.34269 0 
1.32055 2.51979 0 
2.55135 3.12849 0 
3.18582 3.10336 0 
1.37236 2.53602 0 
1.31054 2.13954 0 
3.78836 2.76383 0 
3.87279 2.02598 0 
1.71827 1.29068 0 
2.12521 0.418916 0 
3.73028 1.62288 0 
4.43334 0.305495 0 
2.25092 0.0284862 0 
3.20789 -0.828428 0 
1.23795 2.74064 0 
1.36293 2.71318 0 
1.09629 3.16514 0 
1.15465 2.91818 0 
1.31176 2.90812 0 
1.42585 2.1577 0 
0.998445 2.48063 0 
1.52723 1.91337 0 
1.89945 1.15344 0 
2.24384 0.436564 0 
2.17711 0.920971 0 
2.43556 0.310218 0 
2.18788 0.141652 0 
2.80858 -0.594312 0 
2.26752 0.272618 0 
2.76785 -0.696003 0 
0.572302 2.78349 0 
1.03775 2.52202 0 
-0.102805 2.40561 0 
0.700724 2.0058 0 
0.998129 1.80924 0 
1.23765 1.48775 0 
0.848241 1.33715 0 
0.902331 1.2669 0 
2.10992 0.643295 0 
2.34744 0.00131389 0 
1.52246 0.325635 0 
2.1751 -0.305758 0 
2.00376 -0.15054 0 
2.39446 -1.25987 0 
2.06613 -0.399752 0 
2.57699 -1.61591 0 
-0.0872173 2.23537 0 
0.32583 1.37176 0 
-1.0301 1.94179 0 
-0.583732 0.942262 0 
0.616018 1.31217 0 
0.976835 1.61527 0 
-0.285068 0.680223 0 
-0.0479443 0.256371 0 
1.47286 0.877952 0 
1.73968 -0.0111802 0 
0.0652926 -0.747899 0 
0.174381 -1.62806 0 
1.90966 -0.476445 0 
2.70138 -1.97935 0 
0.254933 -1.63213 0 
1.7223 -2.93154 0 
SCALARS mass double 1
LOOKUP_TABLE default
0.625
0.625
0.625
0.625
0.625
0.625
0.625
0.625
0.625
0.625
0.625
0.625
0.625
0.625
0.625
0.625
0.625
0.625
0.625
0.625
0.625
0.625
0.625
0.625
0.625
0.625
0.625
0.625
0.625
0.625
0.625
0.625
0.625
0.625
0.625
0.625
0.625
0.625
0.625
0.625
0.625
0.625
0.625
0.625
0.625
0.625
0.625
0.625
0.625
0.625
0.625
0.625
0.625
0.625
0.625
0.625
0.625
0.625
0.625
0.625
0.625
0.625
0.625
0.625
SCALARS volume double 1
LOOKUP_TABLE default
0.000647697
0.000677255
0.000615233
0.000646636
0.000678619
0.000657676
0.000621929
0.000644389
0.000661663
0.000632259
0.000664906
0.000649617
0.000620455
0.000624561
0.00061966
0.000648742
0.000671652
0.000620813
0.000652815
0.000628152
0.000630654
0.000685441
0.000644567
0.000664054
0.000629821
0.000663937
0.000670464
0.000635268
0.00065573
0.000594129
0.0006792
0.000618324
0.000575945
0.000653204
0.000623341
0.000675526
0.00063593
0.000657692
0.000635026
0.000646771
0.000654493
0.000619305
0.000706396
0.00065823
0.000637935
0.000679981
0.000635523
0.00065604
0.000623509
0.000622933
0.000623013
0.000603793
0.000629625
0.000623697
0.000663126
0.000600756
0.000609519
0.000637773
0.000586078
0.000641979
0.000640445
0.000635323
0.000642089
0.000632848
VECTORS momentum double
1.14056 2.60804 0 
1.50315 2.24676 0 
0.496669 1.46418 0 
0.825345 1.57487 0 
1.59459 1.95531 0 
1.99114 1.9396 0 
0.857723 1.58501 0 
0.819087 1.33721 0 
2.36773 1.72739 0 
2.4205 1.26624 0 
1.07392 0.806676 0 
1.32826 0.261823 0 
2.33143 1.0143 0 
2.77084 0.190934 0 
1.40682 0.0178039 0 
2.00493 -0.517768 0 
0.773716 1.7129 0 
0.851828 1.69574 0 
0.685182 1.97821 0 
0.721658 1.82386 0 
0.819853 1.81757 0 
0.891154 1.34856 0 
0.624028 1.55039 0 
0.954516 1.19586 0 
1.18716 0.720903 0 
1.4024 0.272853 0 
1.36069 0.575607 0 
1.52223 0.193886 0 
1.36743 0.0885324 0 
1.75536 -0.371445 0 
1.4172 0.170386 0 
1.72991 -0.435002 0 
0.357689 1.73968 0 
0.648593 1.57626 0 
-0.0642534 1.5035 0 
0.437953 1.25363 0 
0.623831 1.13078 0 
0.773528 0.929843 0 
0.53015 0.835722 0 
0.563957 0.791813 0 
1.3187 0.40206 0 
1.46715 0.000821181 0 
0.95154 0.203522 0 
1.35944 -0.191099 0 
1.25235 -0.0940873 0 
1.49654 -0.78742 0 
1.29133 -0.249845 0 
1.61062 -1.00994 0 
-0.0545108 1.3971 0 
0.203643 0.857347 0 
-0.643814 1.21362 0 
-0.364833 0.588914 0 
0.385012 0.820107 0 
0.610522 1.00954 0 
-0.178168 0.425139 0 
-0.0299652 0.160232 0 
0.920536 0.54872 0 
1.0873 -0.0069876 0 
0.0408079 -0.467437 0 
0.108988 -1.01754 0 
1.19354 -0.297778 0 
1.68836 -1.23709 0 
0.159333 -1.02008 0 
1.07643 -1.83221 0 
VECTORS body_force double
0 -9.81 0 
0 -9.81 0 
0 -9.81 0 
0 -9.81 0 
0 -9.81 0 
0 -9.81 0 
0 -9.81 0 
0 -9.81 0 
0 -9.81 0 
0 -9.81 0 
0 -9.81 0 
0 -9.81 0 
0 -9.81 0 
0 -9.81 0 
0 -9.81 0 
0 -9.81 0 
0 -9.81 0 
0 -9.81 0 
0 -9.81 0 
0 -9.81 0 
0 -9.81 0 
0 -9.81 0 
0 -9.81 0 
0 -9.81 0 
0 -9.81 0 
0 -9.81 0 
0 -9.81 0 
0 -9.81 0 
0 -9.81 0 
0 -9.81 0 
0 -9.81 0 
0 -9.81 0 
0 -9.81 0 
0 -9.81 0 
0 -9.81 0 
0 -9.81 0 
0 -9.81 0 
0 -9.81 0 
0 -9.81 0 
0 -9.81 0 
0 -9.81 0 
0 -9.81 0 
0 -9.81 0 
0 -9.81 0 
0 -9.81 0 
0 -9.81 0 
0 -9.81 0 
0 -9.81 0 
0 -9.81 0 
0 -9.81 0 
0 -9.81 0 
0 -9.81 0 
0 -9.81 0 
0 -9.81 0 
0 -9.81 0 
0 -9.81 0 
0 -9.81 0 
0 -9.81 0 
0 -9.81 0 
0 -9.81 0 
0 -9.81 0 
0 -9.81 0 
0 -9.81 0 
0 -9.81 0 
TENSORS cauchy_stress double
2377.8 1982.16 0
1982.16 4481.98 0
0 0 2057.93

8686.84 2946.57 0
2946.57 6754.71 0
0 0 4632.46

-1732.74 3126.95 0
3126.95 -1296.24 0
0 0 -908.692

10649.2 5229.03 0
5229.03 -4104.7 0
0 0 1963.35

11090.9 851.641 0
851.641 4737.53 0
0 0 4748.54

9534.03 4070.27 0
4070.27 266.025 0
0 0 2940.02

-1833.08 4513.17 0
4513.17 885.943 0
0 0 -284.139

5552.03 2727.34 0
2727.34 323.155 0
0 0 1762.55

9689.78 3419.35 0
3419.35 1272.69 0
0 0 3288.74

4329.89 1229.76 0
1229.76 -2109.3 0
0 0 666.174

7051.15 377.355 0
377.355 4851.45 0
0 0 3570.78

4517.75 783.961 0
783.961 2911.23 0
0 0 2228.69

2580.63 -279.855 0
-279.855 -3984.29 0
0 0 -421.099

-1377.04 -498.186 0
-498.186 1241.86 0
0 0 -40.5523

976.366 -315.08 0
-315.08 -2626.45 0
0 0 -495.026

-198.678 -486.036 0
-486.036 7368.7 0
0 0 2151.01

2912.55 -2411.06 0
-2411.06 10931.5 0
0 0 4153.22

193.627 2546.47 0
2546.47 -1486.41 0
0 0 -387.836

3580.84 -681.968 0
-681.968 4792.5 0
0 0 2512

4676.82 -2257.42 0
-2257.42 -3709.51 0
0 0 290.193

-1802.85 -2003.13 0
-2003.13 3534.77 0
0 0 519.574

9900.88 1658.65 0
1658.65 7851.27 0
0 0 5325.64

12680.8 1203.74 0
1203.74 -6752.46 0
0 0 1778.49

13558.4 -965.516 0
-965.516 -1902.28 0
0 0 3496.83

3393.3 1085.58 0
1085.58 -1915.68 0
0 0 443.285

6347.06 1639.4 0
1639.4 5275.25 0
0 0 3486.69

16359.8 -230.645 0
-230.645 -2856.15 0
0 0 4051.09

10855.7 -1705.07 0
-1705.07 -7722.14 0
0 0 940.08

7361.59 625.418 0
625.418 1868.73 0
0 0 2769.1

-1178.1 -1444.58 0
-1444.58 -8563.22 0
0 0 -2922.4

13846.5 484.312 0
484.312 2146.43 0
0 0 4797.89

4397.94 -1800.05 0
-1800.05 -6463.24 0
0 0 -619.588

-7682.16 -2618.57 0
-2618.57 -8037.13 0
0 0 -4715.79

9239.1 -1440.05 0
-1440.05 -750.961 0
0 0 2546.44

-34.4066 -483.543 0
-483.543 -476.794 0
0 0 -153.36

11318.4 -161.469 0
-161.469 3631.53 0
0 0 4484.98

8375.43 49.7814 0
49.7814 -5041.32 0
0 0 1000.23

9934.45 1698.19 0
1698.19 -129.613 0
0 0 2941.45

1989.76 -4357.23 0
-4357.23 1070.69 0
0 0 918.134

1623.22 -3062.2 0
-3062.2 4961.61 0
0 0 1975.45

10955.2 -545.139 0
-545.139 -2087.89 0
0 0 2660.18

6243.23 -2222.74 0
-2222.74 -8003.68 0
0 0 -528.133

16356.8 1587.3 0
1587.3 7186.41 0
0 0 7062.97

7311.41 -5732.02 0
-5732.02 2650.6 0
0 0 2988.6

7975.76 -2639.56 0
-2639.56 -4036.42 0
0 0 1181.8

9440.46 -4636.08 0
-4636.08 6773.52 0
0 0 4864.19

3003.26 -4678.95 0
-4678.95 207.512 0
0 0 963.23

6486.42 -354.712 0
-354.712 2834.76 0
0 0 2796.35

-866.773 -919.585 0
-919.585 407.538 0
0 0 -137.771

-1349.15 -3714.91 0
-3714.91 712.009 0
0 0 -191.142

-1595.52 -814.825 0
-814.825 983.103 0
0 0 -183.724

-1458.2 -2076.27 0
-2076.27 -5180.31 0
0 0 -1991.55

1583.18 -2371.95 0
-2371.95 -165.448 0
0 0 425.319

1755.58 -274.472 0
-274.472 -2156.77 0
0 0 -120.357

7689.34 1991.83 0
1991.83 3697.71 0
0 0 3416.11

-5253.05 -5339.25 0
-5339.25 -2355.33 0
0 0 -2282.52

1596.55 -820.609 0
-820.609 -6419.89 0
0 0 -1447

2217.8 -1600.61 0
-1600.61 1672.81 0
0 0 1167.19

-4202.23 -5135.72 0
-5135.72 -8163.02 0
0 0 -3709.58

5940.77 -2507.1 0
-2507.1 -786.166 0
0 0 1546.38

-475.65 -5155.4 0
-5155.4 5170.25 0
0 0 1408.38

15.1759 -1514.41 0
-1514.41 3135.26 0
0 0 945.13

6220.3 -267.932 0
-267.932 -1032.73 0
0 0 1556.27

1559.88 -1676.43 0
-1676.43 839.848 0
0 0 719.917

TENSORS velocity_gradient double
1.60046 11.6037 0
-19.3845 6.50234 0
0 0 0

-4.05696 15.3947 0
-12.9196 7.93421 0
0 0 0

-2.20473 10.8552 0
-11.68 3.83535 0
0 0 0

-2.74501 14.1464 0
-8.69663 4.09395 0
0 0 0

-5.12823 24.5036 0
-14.776 -1.58951 0
0 0 0

-4.07443 28.026 0
-17.2384 0.605307 0
0 0 0

-4.01784 12.5843 0
-12.5851 -0.678076 0
0 0 0

1.25365 20.7041 0
-26.0428 -1.36991 0
0 0 0

-4.18039 24.9936 0
-28.9179 0.171409 0
0 0 0

-6.05476 19.9479 0
-29.6658 -0.353784 0
0 0 0

-0.91622 22.2424 0
-27.437 -1.07675 0
0 0 0

-0.169709 18.3498 0
-24.0737 -2.71402 0
0 0 0

-2.48182 20.6324 0
-24.6934 1.16847 0
0 0 0

-1.0892 22.4054 0
-23.9719 2.08706 0
0 0 0

-2.85606 16.0875 0
-25.0349 -2.6409 0
0 0 0

-3.10175 22.9945 0
-20.8749 1.97543 0
0 0 0

-3.30497 6.30045 0
-5.50181 -3.01604 0
0 0 0

-1.99788 10.3082 0
-5.4117 -0.923963 0
0 0 0

-5.33145 8.21945 0
-6.43736 -2.13011 0
0 0 0

-1.25324 10.082 0
-16.7651 -1.35823 0
0 0 0

1.24148 12.2528 0
-20.3698 -3.44375 0
0 0 0

1.56631 12.66 0
-22.9889 -6.72718 0
0 0 0

0.45543 12.1691 0
-18.3394 -1.53818 0
0 0 0

2.26182 12.9737 0
-21.0179 -9.29223 0
0 0 0

4.25435 14.1919 0
-23.7487 -8.06949 0
0 0 0

4.39083 15.2786 0
-22.4018 -3.83992 0
0 0 0

7.22102 12.7701 0
-24.204 -8.19244 0
0 0 0

6.93305 12.3592 0
-22.3893 -5.60288 0
0 0 0

0.987746 10.5511 0
-23.6493 -5.57302 0
0 0 0

-0.073759 9.07976 0
-11.9652 -3.35663 0
0 0 0

-0.15393 9.07064 0
-18.6952 -4.12166 0
0 0 0

-0.117209 9.12127 0
-15.6126 0.128233 0
0 0 0

-4.03393 15.1798 0
-17.5173 7.05334 0
0 0 0

-2.60646 11.9172 0
-19.0832 -0.807536 0
0 0 0

-4.67007 17.5507 0
-14.7991 6.09026 0
0 0 0

-4.03007 17.9543 0
-18.173 1.70007 0
0 0 0

-1.06847 13.8741 0
-18.6745 -0.247836 0
0 0 0

6.86961 16.3807 0
-26.2994 -3.60647 0
0 0 0

1.69964 16.3507 0
-19.1559 -2.68881 0
0 0 0

4.00198 19.202 0
-22.3586 -6.65515 0
0 0 0

7.55105 12.4088 0
-26.2837 -5.91572 0
0 0 0

0.316574 11.9992 0
-20.4909 -4.14153 0
0 0 0

2.25286 21.9719 0
-23.6516 -9.30243 0
0 0 0

0.699094 12.1799 0
-20.7224 -4.04196 0
0 0 0

0.0398082 11.5784 0
-20.3758 -3.96649 0
0 0 0

-0.745582 8.47151 0
-18.8461 1.918 0
0 0 0

0.522594 11.243 0
-20.8409 -3.72971 0
0 0 0

1.23716 10.8439 0
-21.552 -0.264982 0
0 0 0

-5.36427 18.2199 0
-10.8494 2.28238 0
0 0 0

-0.0647181 18.6602 0
-17.3942 0.36236 0
0 0 0

0.370055 14.8743 0
-14.6778 -7.03285 0
0 0 0

-0.148596 18.1812 0
-17.5928 -0.708084 0
0 0 0

0.0409787 18.8026 0
-17.1239 0.726257 0
0 0 0

0.497195 21.5701 0
-22.7279 -9.33679 0
0 0 0

-0.113307 18.8918 0
-18.9434 0.814328 0
0 0 0

-0.525108 18.6136 0
-29.5252 -1.83756 0
0 0 0

-0.113287 22.7337 0
-27.2125 -6.39679 0
0 0 0

0.311076 23.4522 0
-24.2785 -1.4288 0
0 0 0

-0.64998 20.8539 0
-30.8059 -4.18693 0
0 0 0

-1.23122 24.1746 0
-26.3442 0.0603898 0
0 0 0

1.43886 20.5022 0
-28.0976 -0.531102 0
0 0 0

1.61951 10.568 0
-26.1664 3.06411 0
0 0 0

-0.2223 26.0102 0
-26.8751 -1.45159 0
0 0 0

0.600548 27.0032 0
-25.115 -3.00118 0
0 0 0

SCALARS active double 1
LOOKUP_TABLE default
1
1
1
1
1
1
1
1
1
1
1
1
1
1
1
1
1
1
1
1
1
1
1
1
1
1
1
1
1
1
1
1
1
1
1
1
1
1
1
1
1
1
1
1
1
1
1
1
1
1
1
1
1
1
1
1
1
1
1
1
1
1
1
1
SCALARS extent double 1
LOOKUP_TABLE default
0.0125
0.0125
0.0125
0.0125
0.0125
0.0125
0.0125
0.0125
0.0125
0.0125
0.0125
0.0125
0.0125
0.0125
0.0125
0.0125
0.0125
0.0125
0.0125
0.0125
0.0125
0.0125
0.0125
0.0125
0.0125
0.0125
0.0125
0.0125
0.0125
0.0125
0.0125
0.0125
0.0125
0.0125
0.0125
0.0125
0.0125
0.0125
0.0125
0.0125
0.0125
0.0125
0.0125
0.0125
0.0125
0.0125
0.0125
0.0125
0.0125
0.0125
0.0125
0.0125
0.0125
0.0125
0.0125
0.0125
0.0125
0.0125
0.0125
0.0125
0.0125
0.0125
0.0125
0.0125
SCALARS pressure double 1
LOOKUP_TABLE default
-2972.57
-6691.34
1312.56
-2835.94
-6859
-4246.69
410.424
-2545.91
-4750.4
-962.252
-5157.8
-3219.23
608.254
58.5755
715.037
-3107.01
-5999.09
560.207
-3628.45
-419.167
-750.496
-7692.6
-2568.94
-5050.98
-640.3
-5036.33
-5851.58
-1357.89
-3999.81
4221.24
-6930.29
894.96
6811.69
-3678.19
221.52
-6478.3
-1444.78
-4248.76
-1326.19
-2853.43
-3842.48
762.859
-10202.1
-4316.87
-1707.05
-7026.06
-1391.33
-4039.18
199.002
276.094
265.379
2876.69
-614.35
173.849
-4934.39
3296.97
2090.11
-1685.93
5358.28
-2233.66
-2034.33
-1365.19
-2247.95
-1039.88
SCALARS density double 1
LOOKUP_TABLE default
964.958
922.843
1015.88
966.541
920.988
950.316
1004.94
969.911
944.589
988.519
939.983
962.106
1007.33
1000.7
1008.62
963.402
930.541
1006.75
957.393
994.983
991.034
911.821
969.643
941.189
992.346
941.354
932.19
983.837
953.136
1051.96
920.201
1010.8
1085.17
956.822
1002.66
925.205
982.812
950.293
984.212
966.338
954.937
1009.2
884.772
949.516
979.724
919.144
983.443
952.686
1002.39
1003.32
1003.19
1035.12
992.655
1002.09
942.506
1040.36
1025.4
979.972
1066.41
973.552
975.884
983.751
973.385
987.599
