# vtk DataFile Version 3.0
Frame: 3, Time: 0.05
ASCII
DATASET UNSTRUCTURED_GRID
POINTS 64 double
0.5125 0.599492 0 
0.5125 0.624492 0 
0.5375 0.599492 0 
0.5375 0.624492 0 
0.5125 0.649492 0 
0.5125 0.674492 0 
0.5375 0.649492 0 
0.5375 0.674492 0 
0.5125 0.699492 0 
0.5125 0.724492 0 
0.5375 0.699492 0 
0.5375 0.724492 0 
0.5125 0.749492 0 
0.5125 0.774492 0 
0.5375 0.749492 0 
0.5375 0.774492 0 
0.5625 0.599492 0 
0.5625 0.624492 0 
0.5875 0.599492 0 
0.5875 0.624492 0 
0.5625 0.649492 0 
0.5625 0.674492 0 
0.5875 0.649492 0 
0.5875 0.674492 0 
0.5625 0.699492 0 
0.5625 0.724492 0 
0.5875 0.699492 0 
0.5875 0.724492 0 
0.5625 0.749492 0 
0.5625 0.774492 0 
0.5875 0.749492 0 
0.5875 0.774492 0 
0.6125 0.599492 0 
0.6125 0.624492 0 
0.6375 0.599492 0 
0.6375 0.624492 0 
0.6125 0.649492 0 
0.6125 0.674492 0 
0.6375 0.649492 0 
0.6375 0.674492 0 
0.6125 0.699492 0 
0.6125 0.724492 0 
0.6375 0.699492 0 
0.6375 0.724492 0 
0.6125 0.749492 0 
0.6125 0.774492 0 
0.6375 0.749492 0 
0.6375 0.774492 0 
0.6625 0.599492 0 
0.6625 0.624492 0 
0.6875 0.599492 0 
0.6875 0.624492 0 
0.6625 0.649492 0 
0.6625 0.674492 0 
0.6875 0.649492 0 
0.6875 0.674492 0 
0.6625 0.699492 0 
0.6625 0.724492 0 
0.6875 0.699492 0 
0.6875 0.724492 0 
0.6625 0.749492 0 
0.6625 0.774492 0 
0.6875 0.749492 0 
0.6875 0.774492 0 
CELLS 64 128
1 0
1 1
1 2
1 3
1 4
1 5
1 6
1 7
1 8
1 9
1 10
1 11
1 12
1 13
1 14
1 15
1 16
1 17
1 18
1 19
1 20
1 21
1 22
1 23
1 24
1 25
1 26
1 27
1 28
1 29
1 30
1 31
1 32
1 33
1 34
1 35
1 36
1 37
1 38
1 39
1 40
1 41
1 42
1 43
1 44
1 45
1 46
1 47
1 48
1 49
1 50
1 51
1 52
1 53
1 54
1 55
1 56
1 57
1 58
1 59
1 60
1 61
1 62
1 63
CELL_TYPES 64
1
1
1
1
1
1
1
1
1
1
1
1
1
1
1
1
1
1
1
1
1
1
1
1
1
1
1
1
1
1
1
1
1
1
1
1
1
1
1
1
1
1
1
1
1
1
1
1
1
1
1
1
1
1
1
1
1
1
1
1
1
1
1
1
POINT_DATA 64
VECTORS displacement double
-9.53788e-18 -0.0130081 0 
-2.64796e-18 -0.0130081 0 
-5.31536e-18 -0.0130081 0 
-1.83384e-18 -0.0130081 0 
3.05393e-18 -0.0130081 0 
-1.02457e-18 -0.0130081 0 
1.10629e-18 -0.0130081 0 
-4.69589e-19 -0.0130081 0 
-4.29971e-18 -0.0130081 0 
1.46357e-18 -0.0130081 0 
-1.69477e-18 -0.0130081 0 
1.39487e-18 -0.0130081 0 
6.90503e-18 -0.0130081 0 
5.60244e-18 -0.0130081 0 
4.5661e-18 -0.0130081 0 
5.06355e-18 -0.0130081 0 
-2.31891e-18 -0.0130081 0 
-1.03583e-18 -0.0130081 0 
-5.48521e-19 -0.0130081 0 
-2.53929e-19 -0.0130081 0 
1.31131e-19 -0.0130081 0 
-6.64295e-20 -0.0130081 0 
1.28463e-19 -0.0130081 0 
1.8491e-19 -0.0130081 0 
-1.50374e-19 -0.0130081 0 
1.29781e-18 -0.0130081 0 
3.33491e-19 -0.0130081 0 
1.17239e-18 -0.0130081 0 
2.99595e-18 -0.0130081 0 
4.24299e-18 -0.0130081 0 
2.19456e-18 -0.0130081 0 
3.14077e-18 -0.0130081 0 
6.00263e-19 -0.0130081 0 
1.95148e-19 -0.0130081 0 
1.12744e-18 -0.0130081 0 
3.11405e-19 -0.0130081 0 
-1.12683e-20 -0.0130081 0 
3.97208e-19 -0.0130081 0 
-2.88063e-19 -0.0130081 0 
5.70465e-19 -0.0130081 0 
8.51281e-19 -0.0130081 0 
1.09146e-18 -0.0130081 0 
1.403e-18 -0.0130081 0 
1.05501e-18 -0.0130081 0 
1.43577e-18 -0.0130081 0 
2.15724e-18 -0.0130081 0 
7.19555e-19 -0.0130081 0 
1.29241e-18 -0.0130081 0 
2.67031e-18 -0.0130081 0 
1.41897e-19 -0.0130081 0 
5.22886e-18 -0.0130081 0 
-3.13375e-19 -0.0130081 0 
-1.64974e-18 -0.0130081 0 
8.8392e-19 -0.0130081 0 
-4.09629e-18 -0.0130081 0 
1.33757e-18 -0.0130081 0 
3.04264e-18 -0.0130081 0 
1.03443e-18 -0.0130081 0 
5.77022e-18 -0.0130081 0 
1.02971e-18 -0.0130081 0 
-8.55845e-19 -0.0130081 0 
4.43783e-19 -0.0130081 0 
-3.29043e-18 -0.0130081 0 
-3.88643e-19 -0.0130081 0 
VECTORS velocity double
-2.38791e-15 -0.50031 0 
1.3472e-16 -0.50031 0 
-7.38161e-16 -0.50031 0 
8.18e-17 -0.50031 0 
2.28936e-15 -0.50031 0 
-2.75973e-16 -0.50031 0 
8.40621e-16 -0.50031 0 
-4.00833e-17 -0.50031 0 
-2.35082e-15 -0.50031 0 
-7.454e-18 -0.50031 0 
-7.66446e-16 -0.50031 0 
6.08967e-17 -0.50031 0 
1.94138e-15 -0.50031 0 
-1.30745e-16 -0.50031 0 
8.09233e-16 -0.50031 0 
2.39769e-16 -0.50031 0 
1.73492e-16 -0.50031 0 
7.17093e-17 -0.50031 0 
3.47045e-16 -0.50031 0 
1.04448e-16 -0.50031 0 
9.56702e-17 -0.50031 0 
7.17092e-17 -0.50031 0 
5.45053e-17 -0.50031 0 
5.94045e-17 -0.50031 0 
3.94609e-17 -0.50031 0 
1.02692e-16 -0.50031 0 
6.68994e-17 -0.50031 0 
1.17932e-16 -0.50031 0 
2.25885e-16 -0.50031 0 
3.53945e-16 -0.50031 0 
1.91335e-16 -0.50031 0 
2.11781e-16 -0.50031 0 
3.38934e-16 -0.50031 0 
9.9052e-17 -0.50031 0 
1.49157e-16 -0.50031 0 
5.55205e-17 -0.50031 0 
1.42402e-17 -0.50031 0 
4.60173e-17 -0.50031 0 
-2.51251e-17 -0.50031 0 
3.15477e-17 -0.50031 0 
8.78453e-17 -0.50031 0 
1.05045e-16 -0.50031 0 
1.02299e-16 -0.50031 0 
6.40291e-17 -0.50031 0 
1.22493e-16 -0.50031 0 
1.03543e-16 -0.50031 0 
1.93581e-17 -0.50031 0 
2.92303e-17 -0.50031 0 
5.32199e-16 -0.50031 0 
-2.45567e-16 -0.50031 0 
1.48806e-15 -0.50031 0 
-8.04211e-16 -0.50031 0 
-7.99208e-16 -0.50031 0 
1.27583e-16 -0.50031 0 
-2.30801e-15 -0.50031 0 
3.34125e-16 -0.50031 0 
8.70362e-16 -0.50031 0 
3.34838e-17 -0.50031 0 
2.39204e-15 -0.50031 0 
1.34087e-17 -0.50031 0 
-6.56057e-16 -0.50031 0 
1.38053e-16 -0.50031 0 
-1.90375e-15 -0.50031 0 
4.3001e-16 -0.50031 0 
SCALARS mass double 1
LOOKUP_TABLE default
0.625
0.625
0.625
0.625
0.625
0.625
0.625
0.625
0.625
0.625
0.625
0.625
0.625
0.625
0.625
0.625
0.625
0.625
0.625
0.625
0.625
0.625
0.625
0.625
0.625
0.625
0.625
0.625
0.625
0.625
0.625
0.625
0.625
0.625
0.625
0.625
0.625
0.625
0.625
0.625
0.625
0.625
0.625
0.625
0.625
0.625
0.625
0.625
0.625
0.625
0.625
0.625
0.625
0.625
0.625
0.625
0.625
0.625
0.625
0.625
0.625
0.625
0.625
0.625
SCALARS volume double 1
LOOKUP_TABLE default
0.000625
0.000625
0.000625
0.000625
0.000625
0.000625
0.000625
0.000625
0.000625
0.000625
0.000625
0.000625
0.000625
0.000625
0.000625
0.000625
0.000625
0.000625
0.000625
0.000625
0.000625
0.000625
0.000625
0.000625
0.000625
0.000625
0.000625
0.000625
0.000625
0.000625
0.000625
0.000625
0.000625
0.000625
0.000625
0.000625
0.000625
0.000625
0.000625
0.000625
0.000625
0.000625
0.000625
0.000625
0.000625
0.000625
0.000625
0.000625
0.000625
0.000625
0.000625
0.000625
0.000625
0.000625
0.000625
0.000625
0.000625
0.000625
0.000625
0.000625
0.000625
0.000625
0.000625
0.000625
VECTORS momentum double
-1.49245e-15 -0.312694 0 
8.42003e-17 -0.312694 0 
-4.61351e-16 -0.312694 0 
5.1125e-17 -0.312694 0 
1.43085e-15 -0.312694 0 
-1.72483e-16 -0.312694 0 
5.25388e-16 -0.312694 0 
-2.50521e-17 -0.312694 0 
-1.46926e-15 -0.312694 0 
-4.65875e-18 -0.312694 0 
-4.79029e-16 -0.312694 0 
3.80605e-17 -0.312694 0 
1.21336e-15 -0.312694 0 
-8.17157e-17 -0.312694 0 
5.05771e-16 -0.312694 0 
1.49856e-16 -0.312694 0 
1.08433e-16 -0.312694 0 
4.48183e-17 -0.312694 0 
2.16903e-16 -0.312694 0 
6.52802e-17 -0.312694 0 
5.97939e-17 -0.312694 0 
4.48182e-17 -0.312694 0 
3.40658e-17 -0.312694 0 
3.71278e-17 -0.312694 0 
2.46631e-17 -0.312694 0 
6.41826e-17 -0.312694 0 
4.18121e-17 -0.312694 0 
7.37077e-17 -0.312694 0 
1.41178e-16 -0.312694 0 
2.21215e-16 -0.312694 0 
1.19585e-16 -0.312694 0 
1.32363e-16 -0.312694 0 
2.11833e-16 -0.312694 0 
6.19075e-17 -0.312694 0 
9.32233e-17 -0.312694 0 
3.47003e-17 -0.312694 0 
8.90013e-18 -0.312694 0 
2.87608e-17 -0.312694 0 
-1.57032e-17 -0.312694 0 
1.97173e-17 -0.312694 0 
5.49033e-17 -0.312694 0 
6.56529e-17 -0.312694 0 
6.39366e-17 -0.312694 0 
4.00182e-17 -0.312694 0 
7.65582e-17 -0.312694 0 
6.47145e-17 -0.312694 0 
1.20988e-17 -0.312694 0 
1.82689e-17 -0.312694 0 
3.32625e-16 -0.312694 0 
-1.53479e-16 -0.312694 0 
9.30037e-16 -0.312694 0 
-5.02632e-16 -0.312694 0 
-4.99505e-16 -0.312694 0 
7.97397e-17 -0.312694 0 
-1.44251e-15 -0.312694 0 
2.08828e-16 -0.312694 0 
5.43976e-16 -0.312694 0 
2.09274e-17 -0.312694 0 
1.49502e-15 -0.312694 0 
8.38045e-18 -0.312694 0 
-4.10035e-16 -0.312694 0 
8.62829e-17 -0.312694 0 
-1.18984e-15 -0.312694 0 
2.68756e-16 -0.312694 0 
VECTORS body_force double
0 -9.81 0 
0 -9.81 0 
0 -9.81 0 
0 -9.81 0 
0 -9.81 0 
0 -9.81 0 
0 -9.81 0 
0 -9.81 0 
0 -9.81 0 
0 -9.81 0 
0 -9.81 0 
0 -9.81 0 
0 -9.81 0 
0 -9.81 0 
0 -9.81 0 
0 -9.81 0 
0 -9.81 0 
0 -9.81 0 
0 -9.81 0 
0 -9.81 0 
0 -9.81 0 
0 -9.81 0 
0 -9.81 0 
0 -9.81 0 
0 -9.81 0 
0 -9.81 0 
0 -9.81 0 
0 -9.81 0 
0 -9.81 0 
0 -9.81 0 
0 -9.81 0 
0 -9.81 0 
0 -9.81 0 
0 -9.81 0 
0 -9.81 0 
0 -9.81 0 
0 -9.81 0 
0 -9.81 0 
0 -9.81 0 
0 -9.81 0 
0 -9.81 0 
0 -9.81 0 
0 -9.81 0 
0 -9.81 0 
0 -9.81 0 
0 -9.81 0 
0 -9.81 0 
0 -9.81 0 
0 -9.81 0 
0 -9.81 0 
0 -9.81 0 
0 -9.81 0 
0 -9.81 0 
0 -9.81 0 
0 -9.81 0 
0 -9.81 0 
0 -9.81 0 
0 -9.81 0 
0 -9.81 0 
0 -9.81 0 
0 -9.81 0 
0 -9.81 0 
0 -9.81 0 
0 -9.81 0 
TENSORS cauchy_stress double
-3.15461e-11 3.32938e-12 0
3.32938e-12 -1.16915e-10 0
0 0 -4.45384e-11

9.19241e-12 9.20858e-12 0
9.20858e-12 1.30989e-11 0
0 0 6.68741e-12

-3.06261e-11 -5.18785e-13 0
-5.18785e-13 -1.14769e-10 0
0 0 -4.36185e-11

8.15318e-12 2.30321e-12 0
2.30321e-12 1.06741e-11 0
0 0 5.64817e-12

4.25812e-11 -3.30997e-12 0
-3.30997e-12 1.19332e-10 0
0 0 4.8574e-11

-1.26274e-11 -9.28284e-12 0
-9.28284e-12 -3.51559e-11 0
0 0 -1.4335e-11

4.37802e-11 -1.31593e-12 0
-1.31593e-12 1.2213e-10 0
0 0 4.97729e-11

-1.46962e-11 -5.9239e-12 0
-5.9239e-12 -3.99833e-11 0
0 0 -1.64039e-11

-4.33154e-11 3.00697e-12 0
3.00697e-12 -1.27786e-10 0
0 0 -5.13306e-11

1.404e-11 9.75262e-12 0
9.75262e-12 3.34647e-11 0
0 0 1.42514e-11

-4.50992e-11 1.17988e-12 0
1.17988e-12 -1.31949e-10 0
0 0 -5.31144e-11

1.35965e-11 4.26345e-12 0
4.26345e-12 3.24297e-11 0
0 0 1.38079e-11

3.72441e-11 2.36966e-13 0
2.36966e-13 1.10892e-10 0
0 0 4.44408e-11

-2.94398e-11 -4.48355e-12 0
-4.48355e-12 -6.31658e-11 0
0 0 -2.77817e-11

3.87813e-11 1.82036e-13 0
1.82036e-13 1.14479e-10 0
0 0 4.5978e-11

-2.98514e-11 -5.7324e-13 0
-5.7324e-13 -6.4126e-11 0
0 0 -2.81932e-11

-3.8211e-11 -3.81682e-12 0
-3.81682e-12 -1.07317e-10 0
0 0 -4.36583e-11

1.16866e-11 -7.16352e-13 0
-7.16352e-13 1.92493e-11 0
0 0 9.28077e-12

-2.04368e-11 -6.00054e-12 0
-6.00054e-12 -6.58436e-11 0
0 0 -2.58841e-11

1.02503e-11 -1.9873e-12 0
-1.9873e-12 1.58978e-11 0
0 0 7.84442e-12

5.34857e-11 -1.26439e-12 0
-1.26439e-12 1.24827e-10 0
0 0 5.34939e-11

-1.33512e-11 -2.76584e-12 0
-2.76584e-12 -3.37307e-11 0
0 0 -1.41246e-11

5.61266e-11 -2.84095e-12 0
-2.84095e-12 1.30989e-10 0
0 0 5.61348e-11

-1.1774e-11 -1.36833e-12 0
-1.36833e-12 -3.00504e-11 0
0 0 -1.25473e-11

-5.61096e-11 -6.80859e-14 0
-6.80859e-14 -1.35885e-10 0
0 0 -5.75984e-11

1.53231e-11 8.31782e-13 0
8.31782e-13 3.70402e-11 0
0 0 1.5709e-11

-5.65444e-11 -7.58827e-13 0
-7.58827e-13 -1.369e-10 0
0 0 -5.80332e-11

1.21958e-11 -1.06974e-12 0
-1.06974e-12 2.97432e-11 0
0 0 1.25817e-11

4.6307e-11 4.6853e-13 0
4.6853e-13 1.16269e-10 0
0 0 4.87728e-11

-3.08414e-11 -9.74535e-13 0
-9.74535e-13 -6.06584e-11 0
0 0 -2.74499e-11

4.69147e-11 -6.38807e-13 0
-6.38807e-13 1.17687e-10 0
0 0 4.93805e-11

-3.11681e-11 -1.4593e-13 0
-1.4593e-13 -6.14206e-11 0
0 0 -2.77766e-11

-2.02891e-11 -2.28687e-12 0
-2.28687e-12 -5.27481e-11 0
0 0 -2.19112e-11

8.22569e-12 -2.28249e-12 0
-2.28249e-12 1.80009e-11 0
0 0 7.86798e-12

-1.87851e-11 -2.81966e-12 0
-2.81966e-12 -4.92388e-11 0
0 0 -2.04072e-11

6.42905e-12 -3.40711e-12 0
-3.40711e-12 1.38087e-11 0
0 0 6.07134e-12

5.48739e-11 -1.43635e-12 0
-1.43635e-12 1.30878e-10 0
0 0 5.57256e-11

-1.29774e-11 -9.44021e-14 0
-9.44021e-14 -3.20577e-11 0
0 0 -1.35105e-11

5.56946e-11 -1.26864e-12 0
-1.26864e-12 1.32793e-10 0
0 0 5.65463e-11

-1.08365e-11 8.70201e-13 0
8.70201e-13 -2.70622e-11 0
0 0 -1.13696e-11

-5.58171e-11 -9.90972e-13 0
-9.90972e-13 -1.35899e-10 0
0 0 -5.75147e-11

1.64443e-11 -7.4306e-13 0
-7.4306e-13 3.87438e-11 0
0 0 1.65564e-11

-5.31094e-11 -5.66496e-13 0
-5.66496e-13 -1.2958e-10 0
0 0 -5.4807e-11

1.27485e-11 -2.04087e-12 0
-2.04087e-12 3.01204e-11 0
0 0 1.28607e-11

4.78401e-11 -4.5571e-14 0
-4.5571e-14 1.18973e-10 0
0 0 5.00438e-11

-3.19571e-11 7.22077e-13 0
7.22077e-13 -6.56964e-11 0
0 0 -2.9296e-11

4.66672e-11 -1.25964e-12 0
-1.25964e-12 1.16236e-10 0
0 0 4.88709e-11

-3.23366e-11 8.59803e-13 0
8.59803e-13 -6.65819e-11 0
0 0 -2.96755e-11

-1.21279e-11 -1.17069e-12 0
-1.17069e-12 -5.45401e-11 0
0 0 -2.00004e-11

5.09218e-12 -3.48338e-12 0
-3.48338e-12 1.65512e-11 0
0 0 6.49302e-12

-1.28878e-11 -5.18649e-12 0
-5.18649e-12 -5.6313e-11 0
0 0 -2.07602e-11

1.46527e-12 -8.48622e-12 0
-8.48622e-12 8.08843e-12 0
0 0 2.86611e-12

4.14652e-11 1.08428e-12 0
1.08428e-12 1.21845e-10 0
0 0 4.89931e-11

-1.13667e-11 4.317e-12 0
4.317e-12 -3.11752e-11 0
0 0 -1.27626e-11

4.30105e-11 3.30323e-12 0
3.30323e-12 1.25451e-10 0
0 0 5.05383e-11

-9.58289e-12 1.00058e-11 0
1.00058e-11 -2.70129e-11 0
0 0 -1.09787e-11

-4.48888e-11 -7.90745e-13 0
-7.90745e-13 -1.32716e-10 0
0 0 -5.32813e-11

1.58769e-11 -4.17609e-12 0
-4.17609e-12 3.70946e-11 0
0 0 1.58915e-11

-4.35293e-11 -1.94554e-12 0
-1.94554e-12 -1.29544e-10 0
0 0 -5.19218e-11

1.50843e-11 -8.58241e-12 0
-8.58241e-12 3.52451e-11 0
0 0 1.50988e-11

3.99776e-11 6.88674e-13 0
6.88674e-13 1.18251e-10 0
0 0 4.74687e-11

-2.70332e-11 2.56507e-12 0
2.56507e-12 -5.45397e-11 0
0 0 -2.44719e-11

3.76097e-11 1.50286e-12 0
1.50286e-12 1.12726e-10 0
0 0 4.51008e-11

-3.07754e-11 5.10983e-12 0
5.10983e-12 -6.32715e-11 0
0 0 -2.82141e-11

TENSORS velocity_gradient double
2.04892e-14 1.01643e-14 0
-1.63203e-14 -8.02691e-14 0
0 0 0

4.40041e-15 3.97478e-14 0
-1.06581e-14 -6.03961e-14 0
0 0 0

2.04892e-14 6.37366e-15 0
-1.86517e-14 -7.54952e-14 0
0 0 0

4.40041e-15 1.95596e-14 0
-1.77636e-14 -4.61853e-14 0
0 0 0

-1.10396e-14 2.14034e-15 0
-2.44249e-15 6.86118e-14 0
0 0 0

2.04492e-15 -3.55605e-14 0
-6.21725e-15 7.99361e-15 0
0 0 0

-1.10396e-14 9.44903e-16 0
-6.21725e-15 6.83897e-14 0
0 0 0

2.04492e-15 -1.7716e-14 0
-1.06581e-14 1.06581e-14 0
0 0 0

1.5635e-14 -2.76346e-16 0
-1.03251e-14 -8.49321e-14 0
0 0 0

3.6666e-15 3.50954e-14 0
-7.10543e-15 -1.06581e-14 0
0 0 0

1.5635e-14 5.50341e-16 0
-8.43769e-15 -9.37028e-14 0
0 0 0

3.6666e-15 1.88621e-14 0
-1.77636e-15 1.77636e-15 0
0 0 0

-8.74334e-15 6.35639e-15 0
-3.9968e-15 5.63993e-14 0
0 0 0

1.81578e-15 -2.2454e-14 0
8.88178e-16 -3.81917e-14 0
0 0 0

-8.74334e-15 5.41674e-15 0
-1.24345e-14 6.92779e-14 0
0 0 0

1.81578e-15 -8.06199e-15 0
-3.55271e-15 -3.55271e-14 0
0 0 0

8.60317e-15 1.23106e-15 0
-1.89848e-14 -6.87228e-14 0
0 0 0

2.27766e-15 6.33095e-15 0
-2.66454e-15 -3.10862e-14 0
0 0 0

8.60317e-15 -5.26355e-15 0
-1.73195e-14 -1.73195e-14 0
0 0 0

2.27766e-15 6.18132e-17 0
-1.24345e-14 -3.01981e-14 0
0 0 0

-2.63018e-15 -6.47827e-17 0
3.33067e-15 7.08322e-14 0
0 0 0

6.39927e-16 -6.4764e-15 0
-5.32907e-15 8.88178e-15 0
0 0 0

-2.63018e-15 -8.8872e-16 0
-2.22045e-15 8.30447e-14 0
0 0 0

6.39927e-16 -1.84161e-15 0
0 1.77636e-14 0
0 0 0

4.10089e-15 9.33424e-16 0
6.66134e-16 -8.4599e-14 0
0 0 0

5.10137e-16 8.36165e-15 0
3.55271e-15 3.55271e-15 0
0 0 0

4.10089e-15 8.72901e-16 0
3.55271e-15 -7.4607e-14 0
0 0 0

5.10137e-16 3.59416e-15 0
5.32907e-15 -1.59872e-14 0
0 0 0

-3.60904e-15 3.8598e-15 0
1.22125e-15 6.51701e-14 0
0 0 0

-3.83349e-15 -6.53229e-16 0
1.77636e-15 -1.95399e-14 0
0 0 0

-3.60904e-15 1.68557e-15 0
0 7.10543e-14 0
0 0 0

-3.83349e-15 -2.27759e-16 0
0 -3.19744e-14 0
0 0 0

-1.23463e-15 -7.63452e-15 0
-1.11022e-14 -4.44089e-16 0
0 0 0

-3.02257e-15 -4.55682e-15 0
-6.21725e-15 -2.39808e-14 0
0 0 0

-1.23463e-15 -5.88187e-15 0
-1.19904e-14 -4.88498e-15 0
0 0 0

-3.02257e-15 -7.52496e-15 0
-1.06581e-14 -3.90799e-14 0
0 0 0

-4.99762e-15 -7.98599e-16 0
-1.65423e-14 7.22755e-14 0
0 0 0

-1.00681e-15 2.96896e-15 0
-7.10543e-15 2.13163e-14 0
0 0 0

-4.99762e-15 2.05582e-16 0
-9.32587e-15 7.59393e-14 0
0 0 0

-1.00681e-15 7.95532e-15 0
-8.88178e-15 3.01981e-14 0
0 0 0

2.75821e-15 8.9313e-16 0
-1.40998e-14 -8.87068e-14 0
0 0 0

-8.13945e-16 -1.18785e-15 0
-1.33227e-14 -6.21725e-15 0
0 0 0

2.75821e-15 9.9411e-16 0
-8.88178e-15 -7.28306e-14 0
0 0 0

-8.13945e-16 -5.98438e-15 0
-5.32907e-15 -5.32907e-15 0
0 0 0

-4.83109e-15 -2.41038e-16 0
-8.65974e-15 6.23945e-14 0
0 0 0

-4.1661e-15 7.0813e-16 0
8.88178e-16 -3.4639e-14 0
0 0 0

-4.83109e-15 -1.92002e-15 0
-6.66134e-15 6.79456e-14 0
0 0 0

-4.1661e-15 2.15444e-15 0
3.55271e-15 -3.19744e-14 0
0 0 0

6.16634e-15 -9.41513e-15 0
1.0103e-14 -1.12133e-14 0
0 0 0

-5.53214e-15 -1.53382e-14 0
1.06581e-14 -3.19744e-14 0
0 0 0

6.16634e-15 -1.82343e-14 0
9.76996e-15 2.66454e-15 0
0 0 0

-5.53214e-15 -2.79964e-14 0
7.10543e-15 -3.90799e-14 0
0 0 0

-1.43352e-14 2.08901e-15 0
1.03251e-14 7.42739e-14 0
0 0 0

2.19128e-17 1.95594e-14 0
5.32907e-15 1.24345e-14 0
0 0 0

-1.43352e-14 4.85167e-15 0
3.55271e-15 8.17124e-14 0
0 0 0

2.19128e-17 3.77813e-14 0
7.10543e-15 2.84217e-14 0
0 0 0

1.38873e-14 1.4426e-15 0
-7.77156e-16 -8.60423e-14 0
0 0 0

1.58147e-15 -1.67192e-14 0
-5.32907e-15 -8.88178e-15 0
0 0 0

1.38873e-14 2.2386e-15 0
1.77636e-15 -8.34888e-14 0
0 0 0

1.58147e-15 -3.33924e-14 0
3.55271e-15 0 0
0 0 0

-1.11636e-14 -3.23998e-15 0
-6.55032e-15 6.80567e-14 0
0 0 0

-3.11135e-16 1.02727e-14 0
-6.21725e-15 -2.04281e-14 0
0 0 0

-1.11636e-14 -4.20091e-15 0
1.33227e-15 7.23865e-14 0
0 0 0

-3.11135e-16 2.5063e-14 0
-3.55271e-15 -3.19744e-14 0
0 0 0

SCALARS active double 1
LOOKUP_TABLE default
1
1
1
1
1
1
1
1
1
1
1
1
1
1
1
1
1
1
1
1
1
1
1
1
1
1
1
1
1
1
1
1
1
1
1
1
1
1
1
1
1
1
1
1
1
1
1
1
1
1
1
1
1
1
1
1
1
1
1
1
1
1
1
1
SCALARS extent double 1
LOOKUP_TABLE default
0.0125
0.0125
0.0125
0.0125
0.0125
0.0125
0.0125
0.0125
0.0125
0.0125
0.0125
0.0125
0.0125
0.0125
0.0125
0.0125
0.0125
0.0125
0.0125
0.0125
0.0125
0.0125
0.0125
0.0125
0.0125
0.0125
0.0125
0.0125
0.0125
0.0125
0.0125
0.0125
0.0125
0.0125
0.0125
0.0125
0.0125
0.0125
0.0125
0.0125
0.0125
0.0125
0.0125
0.0125
0.0125
0.0125
0.0125
0.0125
0.0125
0.0125
0.0125
0.0125
0.0125
0.0125
0.0125
0.0125
0.0125
0.0125
0.0125
0.0125
0.0125
0.0125
0.0125
0.0125
SCALARS pressure double 1
LOOKUP_TABLE default
6.43333e-11
-9.65959e-12
6.30045e-11
-8.15847e-12
-7.01624e-11
2.07061e-11
-7.18942e-11
2.36945e-11
7.41441e-11
-2.05854e-11
7.67208e-11
-1.99447e-11
-6.41923e-11
4.01291e-11
-6.64127e-11
4.07235e-11
6.30621e-11
-1.34056e-11
3.73882e-11
-1.13308e-11
-7.7269e-11
2.04022e-11
-8.10836e-11
1.81239e-11
8.31977e-11
-2.26908e-11
8.38257e-11
-1.81735e-11
-7.04496e-11
3.96499e-11
-7.13274e-11
4.01218e-11
3.16495e-11
-1.13649e-11
2.9477e-11
-8.76971e-12
-8.04925e-11
1.95152e-11
-8.16779e-11
1.64228e-11
8.30768e-11
-2.39148e-11
7.91656e-11
-1.85765e-11
-7.22855e-11
4.23165e-11
-7.05913e-11
4.28647e-11
2.88895e-11
-9.3788e-12
2.9987e-11
-4.13994e-12
-7.07678e-11
1.84348e-11
-7.29998e-11
1.58582e-11
7.69619e-11
-2.29543e-11
7.49982e-11
-2.18094e-11
-6.85658e-11
3.53482e-11
-6.51455e-11
4.07536e-11
SCALARS density double 1
LOOKUP_TABLE default
1000
1000
1000
1000
1000
1000
1000
1000
1000
1000
1000
1000
1000
1000
1000
1000
1000
1000
1000
1000
1000
1000
1000
1000
1000
1000
1000
1000
1000
1000
1000
1000
1000
1000
1000
1000
1000
1000
1000
1000
1000
1000
1000
1000
1000
1000
1000
1000
1000
1000
1000
1000
1000
1000
1000
1000
1000
1000
1000
1000
1000
1000
1000
1000
