# vtk DataFile Version 3.0
Frame: 15, Time: 0.25
ASCII
DATASET UNSTRUCTURED_GRID
POINTS 64 double
0.4125 0.102249 0 
0.4125 0.127249 0 
0.4375 0.102249 0 
0.4375 0.127249 0 
0.4125 0.152249 0 
0.4125 0.177249 0 
0.4375 0.152249 0 
0.4375 0.177249 0 
0.4125 0.202249 0 
0.4125 0.227249 0 
0.4375 0.202249 0 
0.4375 0.227249 0 
0.4125 0.252249 0 
0.4125 0.277249 0 
0.4375 0.252249 0 
0.4375 0.277249 0 
0.4625 0.102249 0 
0.4625 0.127249 0 
0.4875 0.102249 0 
0.4875 0.127249 0 
0.4625 0.152249 0 
0.4625 0.177249 0 
0.4875 0.152249 0 
0.4875 0.177249 0 
0.4625 0.202249 0 
0.4625 0.227249 0 
0.4875 0.202249 0 
0.4875 0.227249 0 
0.4625 0.252249 0 
0.4625 0.277249 0 
0.4875 0.252249 0 
0.4875 0.277249 0 
0.5125 0.102249 0 
0.5125 0.127249 0 
0.5375 0.102249 0 
0.5375 0.127249 0 
0.5125 0.152249 0 
0.5125 0.177249 0 
0.5375 0.152249 0 
0.5375 0.177249 0 
0.5125 0.202249 0 
0.5125 0.227249 0 
0.5375 0.202249 0 
0.5375 0.227249 0 
0.5125 0.252249 0 
0.5125 0.277249 0 
0.5375 0.252249 0 
0.5375 0.277249 0 
0.5625 0.102249 0 
0.5625 0.127249 0 
0.5875 0.102249 0 
0.5875 0.127249 0 
0.5625 0.152249 0 
0.5625 0.177249 0 
0.5875 0.152249 0 
0.5875 0.177249 0 
0.5625 0.202249 0 
0.5625 0.227249 0 
0.5875 0.202249 0 
0.5875 0.227249 0 
0.5625 0.252249 0 
0.5625 0.277249 0 
0.5875 0.252249 0 
0.5875 0.277249 0 
CELLS 64 128
1 0
1 1
1 2
1 3
1 4
1 5
1 6
1 7
1 8
1 9
1 10
1 11
1 12
1 13
1 14
1 15
1 16
1 17
1 18
1 19
1 20
1 21
1 22
1 23
1 24
1 25
1 26
1 27
1 28
1 29
1 30
1 31
1 32
1 33
1 34
1 35
1 36
1 37
1 38
1 39
1 40
1 41
1 42
1 43
1 44
1 45
1 46
1 47
1 48
1 49
1 50
1 51
1 52
1 53
1 54
1 55
1 56
1 57
1 58
1 59
1 60
1 61
1 62
1 63
CELL_TYPES 64
1
1
1
1
1
1
1
1
1
1
1
1
1
1
1
1
1
1
1
1
1
1
1
1
1
1
1
1
1
1
1
1
1
1
1
1
1
1
1
1
1
1
1
1
1
1
1
1
1
1
1
1
1
1
1
1
1
1
1
1
1
1
1
1
POINT_DATA 64
VECTORS displacement double
-8.96245e-17 -0.310251 0 
-1.07006e-16 -0.310251 0 
-1.04957e-16 -0.310251 0 
-1.08085e-16 -0.310251 0 
-1.10113e-16 -0.310251 0 
-9.86906e-17 -0.310251 0 
-1.04343e-16 -0.310251 0 
-9.37381e-17 -0.310251 0 
-6.64897e-17 -0.310251 0 
-4.6371e-17 -0.310251 0 
-7.01564e-17 -0.310251 0 
-5.43506e-17 -0.310251 0 
-4.31837e-17 -0.310251 0 
-5.33309e-17 -0.310251 0 
-4.92782e-17 -0.310251 0 
-5.03275e-17 -0.310251 0 
-1.15905e-16 -0.310251 0 
-1.09345e-16 -0.310251 0 
-1.22469e-16 -0.310251 0 
-1.10784e-16 -0.310251 0 
-1.021e-16 -0.310251 0 
-9.22664e-17 -0.310251 0 
-1.03383e-16 -0.310251 0 
-9.42757e-17 -0.310251 0 
-7.48855e-17 -0.310251 0 
-6.18155e-17 -0.310251 0 
-8.06771e-17 -0.310251 0 
-6.87656e-17 -0.310251 0 
-5.50192e-17 -0.310251 0 
-4.92764e-17 -0.310251 0 
-6.04066e-17 -0.310251 0 
-5.01776e-17 -0.310251 0 
-1.25427e-16 -0.310251 0 
-1.11649e-16 -0.310251 0 
-1.2478e-16 -0.310251 0 
-1.11939e-16 -0.310251 0 
-1.03885e-16 -0.310251 0 
-9.64367e-17 -0.310251 0 
-1.03608e-16 -0.310251 0 
-9.87492e-17 -0.310251 0 
-8.67694e-17 -0.310251 0 
-7.53156e-17 -0.310251 0 
-9.31623e-17 -0.310251 0 
-8.14656e-17 -0.310251 0 
-6.44463e-17 -0.310251 0 
-5.11558e-17 -0.310251 0 
-6.71381e-17 -0.310251 0 
-5.22112e-17 -0.310251 0 
-1.3281e-16 -0.310251 0 
-1.14346e-16 -0.310251 0 
-1.49517e-16 -0.310251 0 
-1.1887e-16 -0.310251 0 
-1.01081e-16 -0.310251 0 
-9.63734e-17 -0.310251 0 
-9.63052e-17 -0.310251 0 
-8.93092e-17 -0.310251 0 
-9.62004e-17 -0.310251 0 
-8.75027e-17 -0.310251 0 
-9.58835e-17 -0.310251 0 
-9.34267e-17 -0.310251 0 
-7.12714e-17 -0.310251 0 
-4.99744e-17 -0.310251 0 
-7.6846e-17 -0.310251 0 
-4.44455e-17 -0.310251 0 
VECTORS velocity double
9.05918e-15 -2.46231 0 
2.98448e-15 -2.46231 0 
5.17102e-15 -2.46231 0 
1.63851e-15 -2.46231 0 
-5.31321e-15 -2.46231 0 
-6.90197e-15 -2.46231 0 
-3.5306e-15 -2.46231 0 
-4.93028e-15 -2.46231 0 
-1.01741e-15 -2.46231 0 
1.63226e-15 -2.46231 0 
-2.38029e-15 -2.46231 0 
-6.59932e-16 -2.46231 0 
7.96475e-16 -2.46231 0 
3.67339e-16 -2.46231 0 
-1.2833e-16 -2.46231 0 
1.5262e-15 -2.46231 0 
1.88927e-15 -2.46231 0 
6.68825e-16 -2.46231 0 
-7.86066e-16 -2.46231 0 
7.54349e-17 -2.46231 0 
-2.21752e-15 -2.46231 0 
-3.18366e-15 -2.46231 0 
-1.37397e-15 -2.46231 0 
-1.66213e-15 -2.46231 0 
-2.46081e-15 -2.46231 0 
-1.51138e-15 -2.46231 0 
-1.25898e-15 -2.46231 0 
-9.22087e-16 -2.46231 0 
-4.74717e-16 -2.46231 0 
1.49543e-15 -2.46231 0 
-2.42688e-16 -2.46231 0 
2.75025e-16 -2.46231 0 
-2.98006e-15 -2.46231 0 
-5.59563e-16 -2.46231 0 
-4.69272e-15 -2.46231 0 
-1.23617e-15 -2.46231 0 
-1.77107e-16 -2.46231 0 
-1.82735e-16 -2.46231 0 
1.37307e-15 -2.46231 0 
1.25452e-15 -2.46231 0 
-3.2114e-16 -2.46231 0 
-4.98883e-16 -2.46231 0 
3.52696e-16 -2.46231 0 
-2.4177e-16 -2.46231 0 
1.15985e-17 -2.46231 0 
-7.23644e-16 -2.46231 0 
2.88143e-16 -2.46231 0 
-1.50058e-15 -2.46231 0 
-7.48712e-15 -2.46231 0 
-2.33506e-15 -2.46231 0 
-1.13633e-14 -2.46231 0 
-3.85625e-15 -2.46231 0 
2.73338e-15 -2.46231 0 
2.75658e-15 -2.46231 0 
3.90382e-15 -2.46231 0 
4.32347e-15 -2.46231 0 
3.06869e-16 -2.46231 0 
-7.88232e-16 -2.46231 0 
-4.58621e-16 -2.46231 0 
-2.13827e-15 -2.46231 0 
-1.80882e-16 -2.46231 0 
-4.2129e-16 -2.46231 0 
-1.39548e-15 -2.46231 0 
2.51421e-15 -2.46231 0 
SCALARS mass double 1
LOOKUP_TABLE default
0.625
0.625
0.625
0.625
0.625
0.625
0.625
0.625
0.625
0.625
0.625
0.625
0.625
0.625
0.625
0.625
0.625
0.625
0.625
0.625
0.625
0.625
0.625
0.625
0.625
0.625
0.625
0.625
0.625
0.625
0.625
0.625
0.625
0.625
0.625
0.625
0.625
0.625
0.625
0.625
0.625
0.625
0.625
0.625
0.625
0.625
0.625
0.625
0.625
0.625
0.625
0.625
0.625
0.625
0.625
0.625
0.625
0.625
0.625
0.625
0.625
0.625
0.625
0.625
SCALARS volume double 1
LOOKUP_TABLE default
0.000625
0.000625
0.000625
0.000625
0.000625
0.000625
0.000625
0.000625
0.000625
0.000625
0.000625
0.000625
0.000625
0.000625
0.000625
0.000625
0.000625
0.000625
0.000625
0.000625
0.000625
0.000625
0.000625
0.000625
0.000625
0.000625
0.000625
0.000625
0.000625
0.000625
0.000625
0.000625
0.000625
0.000625
0.000625
0.000625
0.000625
0.000625
0.000625
0.000625
0.000625
0.000625
0.000625
0.000625
0.000625
0.000625
0.000625
0.000625
0.000625
0.000625
0.000625
0.000625
0.000625
0.000625
0.000625
0.000625
0.000625
0.000625
0.000625
0.000625
0.000625
0.000625
0.000625
0.000625
VECTORS momentum double
5.66199e-15 -1.53894 0 
1.8653e-15 -1.53894 0 
3.23189e-15 -1.53894 0 
1.02407e-15 -1.53894 0 
-3.32076e-15 -1.53894 0 
-4.31373e-15 -1.53894 0 
-2.20662e-15 -1.53894 0 
-3.08142e-15 -1.53894 0 
-6.3588e-16 -1.53894 0 
1.02016e-15 -1.53894 0 
-1.48768e-15 -1.53894 0 
-4.12457e-16 -1.53894 0 
4.97797e-16 -1.53894 0 
2.29587e-16 -1.53894 0 
-8.0206e-17 -1.53894 0 
9.53878e-16 -1.53894 0 
1.18079e-15 -1.53894 0 
4.18016e-16 -1.53894 0 
-4.91291e-16 -1.53894 0 
4.71468e-17 -1.53894 0 
-1.38595e-15 -1.53894 0 
-1.98979e-15 -1.53894 0 
-8.58731e-16 -1.53894 0 
-1.03883e-15 -1.53894 0 
-1.53801e-15 -1.53894 0 
-9.44614e-16 -1.53894 0 
-7.86861e-16 -1.53894 0 
-5.76304e-16 -1.53894 0 
-2.96698e-16 -1.53894 0 
9.34646e-16 -1.53894 0 
-1.5168e-16 -1.53894 0 
1.71891e-16 -1.53894 0 
-1.86254e-15 -1.53894 0 
-3.49727e-16 -1.53894 0 
-2.93295e-15 -1.53894 0 
-7.72606e-16 -1.53894 0 
-1.10692e-16 -1.53894 0 
-1.1421e-16 -1.53894 0 
8.58169e-16 -1.53894 0 
7.84073e-16 -1.53894 0 
-2.00713e-16 -1.53894 0 
-3.11802e-16 -1.53894 0 
2.20435e-16 -1.53894 0 
-1.51106e-16 -1.53894 0 
7.24905e-18 -1.53894 0 
-4.52278e-16 -1.53894 0 
1.80089e-16 -1.53894 0 
-9.3786e-16 -1.53894 0 
-4.67945e-15 -1.53894 0 
-1.45942e-15 -1.53894 0 
-7.10205e-15 -1.53894 0 
-2.41015e-15 -1.53894 0 
1.70836e-15 -1.53894 0 
1.72287e-15 -1.53894 0 
2.43989e-15 -1.53894 0 
2.70217e-15 -1.53894 0 
1.91793e-16 -1.53894 0 
-4.92645e-16 -1.53894 0 
-2.86638e-16 -1.53894 0 
-1.33642e-15 -1.53894 0 
-1.13051e-16 -1.53894 0 
-2.63306e-16 -1.53894 0 
-8.72173e-16 -1.53894 0 
1.57138e-15 -1.53894 0 
VECTORS body_force double
0 -9.81 0 
0 -9.81 0 
0 -9.81 0 
0 -9.81 0 
0 -9.81 0 
0 -9.81 0 
0 -9.81 0 
0 -9.81 0 
0 -9.81 0 
0 -9.81 0 
0 -9.81 0 
0 -9.81 0 
0 -9.81 0 
0 -9.81 0 
0 -9.81 0 
0 -9.81 0 
0 -9.81 0 
0 -9.81 0 
0 -9.81 0 
0 -9.81 0 
0 -9.81 0 
0 -9.81 0 
0 -9.81 0 
0 -9.81 0 
0 -9.81 0 
0 -9.81 0 
0 -9.81 0 
0 -9.81 0 
0 -9.81 0 
0 -9.81 0 
0 -9.81 0 
0 -9.81 0 
0 -9.81 0 
0 -9.81 0 
0 -9.81 0 
0 -9.81 0 
0 -9.81 0 
0 -9.81 0 
0 -9.81 0 
0 -9.81 0 
0 -9.81 0 
0 -9.81 0 
0 -9.81 0 
0 -9.81 0 
0 -9.81 0 
0 -9.81 0 
0 -9.81 0 
0 -9.81 0 
0 -9.81 0 
0 -9.81 0 
0 -9.81 0 
0 -9.81 0 
0 -9.81 0 
0 -9.81 0 
0 -9.81 0 
0 -9.81 0 
0 -9.81 0 
0 -9.81 0 
0 -9.81 0 
0 -9.81 0 
0 -9.81 0 
0 -9.81 0 
0 -9.81 0 
0 -9.81 0 
TENSORS cauchy_stress double
-1.29464e-11 -2.5493e-11 0
-2.5493e-11 1.27048e-10 0
0 0 3.42306e-11

1.02796e-12 -2.81174e-11 0
-2.81174e-11 1.34674e-11 0
0 0 4.3486e-12

-1.00169e-11 -8.77838e-12 0
-8.77838e-12 1.33884e-10 0
0 0 3.71602e-11

-2.31562e-11 -2.07288e-11 0
-2.07288e-11 -4.29624e-11 0
0 0 -1.98356e-11

3.9717e-11 -1.27864e-11 0
-1.27864e-11 3.34942e-11 0
0 0 2.19633e-11

1.86517e-12 4.68442e-12 0
4.68442e-12 -4.64431e-11 0
0 0 -1.33734e-11

4.65845e-11 -1.31751e-11 0
-1.31751e-11 4.95184e-11 0
0 0 2.88308e-11

1.33512e-11 -5.67152e-12 0
-5.67152e-12 -1.96424e-11 0
0 0 -1.88737e-12

-9.8356e-11 3.64879e-11 0
3.64879e-11 -1.9189e-10 0
0 0 -8.70738e-11

-1.61839e-11 2.12971e-12 0
2.12971e-12 4.40794e-11 0
0 0 8.36865e-12

-7.47279e-11 1.57672e-11 0
1.57672e-11 -1.36758e-10 0
0 0 -6.34457e-11

4.2805e-12 -1.47803e-12 0
-1.47803e-12 9.18297e-11 0
0 0 2.88331e-11

1.25287e-11 -2.1991e-11 0
-2.1991e-11 9.17419e-11 0
0 0 3.12812e-11

-1.00745e-11 -2.04737e-11 0
-2.04737e-11 -5.43112e-11 0
0 0 -1.93157e-11

2.11088e-11 -1.93068e-11 0
-1.93068e-11 1.11762e-10 0
0 0 3.98613e-11

-2.60132e-12 -1.15677e-12 0
-1.15677e-12 -3.68738e-11 0
0 0 -1.18425e-11

4.05938e-12 -4.89839e-12 0
-4.89839e-12 7.67934e-11 0
0 0 2.42558e-11

-1.90614e-11 -1.42861e-11 0
-1.42861e-11 -2.97118e-11 0
0 0 -1.46319e-11

3.87452e-11 -6.12388e-12 0
-6.12388e-12 1.57727e-10 0
0 0 5.89416e-11

-2.10454e-11 -1.54943e-12 0
-1.54943e-12 -3.43411e-11 0
0 0 -1.66159e-11

2.70232e-11 -8.23309e-12 0
-8.23309e-12 7.62122e-11 0
0 0 3.09706e-11

-4.62029e-11 2.26432e-12 0
2.26432e-12 -8.71985e-11 0
0 0 -4.00204e-11

-6.85271e-12 -3.4963e-12 0
-3.4963e-12 -2.83165e-12 0
0 0 -2.90531e-12

-3.56328e-11 -3.24549e-12 0
-3.24549e-12 -6.2535e-11 0
0 0 -2.94503e-11

-8.5826e-11 7.84519e-13 0
7.84519e-13 -1.4086e-10 0
0 0 -6.80058e-11

-2.47239e-11 -6.32845e-12 0
-6.32845e-12 1.35941e-11 0
0 0 -3.33894e-12

-9.11511e-11 -5.18352e-12 0
-5.18352e-12 -1.53285e-10 0
0 0 -7.33308e-11

-3.30352e-12 3.95745e-12 0
3.95745e-12 6.3575e-11 0
0 0 1.80814e-11

1.49277e-11 -1.36472e-11 0
-1.36472e-11 9.00867e-11 0
0 0 3.15043e-11

-2.51279e-11 -1.82251e-11 0
-1.82251e-11 -4.9389e-11 0
0 0 -2.23551e-11

4.96291e-11 -2.91869e-12 0
-2.91869e-12 1.71057e-10 0
0 0 6.62057e-11

-1.75218e-11 -3.45919e-13 0
-3.45919e-13 -3.16414e-11 0
0 0 -1.4749e-11

2.04792e-11 -3.79482e-12 0
-3.79482e-12 4.11441e-11 0
0 0 1.8487e-11

-1.46713e-11 -1.34116e-11 0
-1.34116e-11 -3.12585e-11 0
0 0 -1.37789e-11

4.05168e-11 -7.39962e-12 0
-7.39962e-12 8.78986e-11 0
0 0 3.85246e-11

-2.02389e-11 1.48169e-12 0
1.48169e-12 -4.42498e-11 0
0 0 -1.93466e-11

6.29004e-12 -7.6927e-12 0
-7.6927e-12 1.18291e-11 0
0 0 5.43576e-12

-2.88909e-11 -8.91771e-12 0
-8.91771e-12 -4.36938e-11 0
0 0 -2.17754e-11

-4.78123e-12 6.41712e-12 0
6.41712e-12 -1.40038e-11 0
0 0 -5.63552e-12

-4.12784e-11 -4.90016e-12 0
-4.90016e-12 -7.2598e-11 0
0 0 -3.41629e-11

-9.54938e-11 -2.93695e-12 0
-2.93695e-12 -1.5725e-10 0
0 0 -7.58231e-11

-9.13621e-12 -1.23218e-11 0
-1.23218e-11 4.17592e-11 0
0 0 9.78689e-12

-8.71779e-11 -5.97858e-12 0
-5.97858e-12 -1.37846e-10 0
0 0 -6.75073e-11

-6.01211e-12 3.94071e-13 0
3.94071e-13 4.90488e-11 0
0 0 1.2911e-11

2.673e-11 -1.5206e-12 0
-1.5206e-12 8.99788e-11 0
0 0 3.50126e-11

-1.19438e-11 1.01724e-11 0
1.01724e-11 -1.70445e-11 0
0 0 -8.69649e-12

3.66287e-11 7.59135e-12 0
7.59135e-12 1.13076e-10 0
0 0 4.49114e-11

8.08832e-13 9.10251e-12 0
9.10251e-12 1.27116e-11 0
0 0 4.05613e-12

-3.49372e-12 7.86133e-12 0
7.86133e-12 1.63208e-10 0
0 0 4.79142e-11

-2.6427e-11 2.05829e-11 0
2.05829e-11 -1.52605e-11 0
0 0 -1.25062e-11

-2.97684e-11 2.35316e-11 0
2.35316e-11 1.019e-10 0
0 0 2.16395e-11

1.01577e-12 2.35612e-11 0
2.35612e-11 4.87727e-11 0
0 0 1.49365e-11

5.36276e-11 6.51231e-12 0
6.51231e-12 7.61489e-11 0
0 0 3.89329e-11

-2.58662e-12 -2.96537e-12 0
-2.96537e-12 -7.84887e-11 0
0 0 -2.43226e-11

4.21968e-11 1.55494e-11 0
1.55494e-11 4.94771e-11 0
0 0 2.75022e-11

7.30611e-12 -1.20464e-11 0
-1.20464e-11 -5.54056e-11 0
0 0 -1.44299e-11

-7.30045e-11 -1.55824e-11 0
-1.55824e-11 -1.73594e-10 0
0 0 -7.39795e-11

-6.68958e-12 -5.93213e-12 0
-5.93213e-12 4.51502e-11 0
0 0 1.15382e-11

-7.01666e-11 -3.85111e-11 0
-3.85111e-11 -1.66972e-10 0
0 0 -7.11416e-11

-1.28849e-11 8.49111e-13 0
8.49111e-13 3.06943e-11 0
0 0 5.34282e-12

3.3913e-11 2.17812e-11 0
2.17812e-11 1.36306e-10 0
0 0 5.10658e-11

3.37253e-12 5.25884e-12 0
5.25884e-12 -4.8838e-11 0
0 0 -1.36396e-11

2.11628e-11 1.64888e-11 0
1.64888e-11 1.06556e-10 0
0 0 3.83156e-11

8.66317e-12 2.33097e-11 0
2.33097e-11 -3.64931e-11 0
0 0 -8.34899e-12

TENSORS velocity_gradient double
-4.5e-14 -1.08379e-13 0
1.42109e-13 5.68434e-14 0
0 0 0

-2.76116e-14 -1.2562e-13 0
1.03029e-13 7.4607e-14 0
0 0 0

-4.5e-14 -9.34572e-14 0
1.59872e-13 4.61853e-14 0
0 0 0

-2.76116e-14 -1.07409e-13 0
1.06581e-13 7.10543e-15 0
0 0 0

-1.05863e-14 -4.28528e-14 0
9.05942e-14 -2.30926e-14 0
0 0 0

2.38368e-15 -3.12339e-14 0
3.19744e-14 3.19744e-14 0
0 0 0

-1.05863e-14 -2.93836e-14 0
4.9738e-14 -7.81597e-14 0
0 0 0

2.38368e-15 -1.84303e-14 0
3.55271e-14 7.10543e-15 0
0 0 0

9.90396e-15 4.98592e-14 0
8.88178e-15 -1.95399e-14 0
0 0 0

-6.50811e-16 6.12431e-14 0
7.10543e-15 -6.39488e-14 0
0 0 0

9.90396e-15 4.15294e-14 0
1.77636e-14 -6.75016e-14 0
0 0 0

-6.50811e-16 4.99466e-14 0
-7.10543e-15 -1.20792e-13 0
0 0 0

-8.15691e-15 2.84116e-14 0
-1.95399e-14 2.22045e-13 0
0 0 0

-2.69567e-15 2.38026e-14 0
-2.84217e-14 7.10543e-14 0
0 0 0

-8.15691e-15 3.22765e-14 0
7.10543e-15 2.34479e-13 0
0 0 0

-2.69567e-15 2.9796e-14 0
0 2.84217e-14 0
0 0 0

-7.53775e-14 -6.10604e-14 0
6.57252e-14 -1.95399e-14 0
0 0 0

-2.13657e-14 -7.06081e-14 0
1.42109e-14 0 0
0 0 0

-7.53775e-14 -1.11889e-14 0
3.19744e-14 3.19744e-14 0
0 0 0

-2.13657e-14 -1.52162e-14 0
2.13163e-14 3.55271e-14 0
0 0 0

2.27994e-14 -1.74065e-14 0
3.37508e-14 -6.57252e-14 0
0 0 0

2.85562e-14 -9.93806e-15 0
3.55271e-14 7.10543e-15 0
0 0 0

2.27994e-14 -6.92166e-15 0
5.32907e-14 -8.88178e-14 0
0 0 0

2.85562e-14 -5.75727e-15 0
4.26326e-14 4.26326e-14 0
0 0 0

2.81764e-14 3.03337e-14 0
-7.10543e-15 -9.23706e-14 0
0 0 0

1.21941e-14 3.59871e-14 0
1.06581e-14 -1.03029e-13 0
0 0 0

2.81764e-14 1.62721e-14 0
0 -5.68434e-14 0
0 0 0

1.21941e-14 1.93646e-14 0
2.13163e-14 -1.20792e-13 0
0 0 0

-3.8246e-15 2.71054e-14 0
-5.32907e-15 2.22045e-13 0
0 0 0

-1.77774e-14 2.58586e-14 0
-3.19744e-14 2.4869e-14 0
0 0 0

-3.8246e-15 1.28983e-14 0
1.42109e-14 1.84741e-13 0
0 0 0

-1.77774e-14 1.19905e-14 0
-1.42109e-14 2.84217e-14 0
0 0 0

-6.71118e-14 3.7425e-14 0
-5.15143e-14 6.21725e-14 0
0 0 0

-1.52314e-14 3.9174e-14 0
-7.10543e-14 4.26326e-14 0
0 0 0

-6.71118e-14 8.47813e-14 0
-6.75016e-14 1.03029e-13 0
0 0 0

-1.52314e-14 9.25625e-14 0
-6.39488e-14 2.13163e-14 0
0 0 0

2.67244e-14 2.14956e-15 0
-4.61853e-14 -1.03029e-13 0
0 0 0

2.95671e-14 -3.04796e-15 0
-2.84217e-14 4.26326e-14 0
0 0 0

2.67244e-14 9.80714e-15 0
-3.55271e-14 -9.23706e-14 0
0 0 0

2.95671e-14 -1.81013e-15 0
-4.26326e-14 5.68434e-14 0
0 0 0

2.72482e-14 2.74664e-15 0
-5.15143e-14 -7.99361e-14 0
0 0 0

1.2761e-14 3.56009e-15 0
7.10543e-15 -9.23706e-14 0
0 0 0

2.72482e-14 -1.02426e-14 0
-3.19744e-14 -7.4607e-14 0
0 0 0

1.2761e-14 -1.14264e-14 0
-7.10543e-15 -9.23706e-14 0
0 0 0

-7.22048e-16 1.3082e-15 0
-3.01981e-14 1.97176e-13 0
0 0 0

-9.0619e-15 9.92078e-16 0
3.55271e-14 7.10543e-15 0
0 0 0

-7.22048e-16 -7.66479e-15 0
7.10543e-15 2.06057e-13 0
0 0 0

-9.0619e-15 -7.13673e-15 0
2.13163e-14 4.9738e-14 0
0 0 0

-3.77138e-14 1.12266e-13 0
-1.40332e-13 5.86198e-14 0
0 0 0

-2.76042e-14 1.24728e-13 0
-1.38556e-13 3.19744e-14 0
0 0 0

-3.77138e-14 1.19878e-13 0
-9.9476e-14 -2.84217e-14 0
0 0 0

-2.76042e-14 1.3567e-13 0
-1.06581e-13 4.9738e-14 0
0 0 0

-1.55901e-14 2.12512e-14 0
-5.68434e-14 -5.68434e-14 0
0 0 0

9.19325e-17 6.72506e-15 0
-6.03961e-14 2.4869e-14 0
0 0 0

-1.55901e-14 3.64817e-14 0
-9.23706e-14 -7.10543e-15 0
0 0 0

9.19325e-17 2.25576e-14 0
-6.39488e-14 1.35003e-13 0
0 0 0

1.07383e-14 -1.91933e-14 0
-4.26326e-14 -9.9476e-14 0
0 0 0

3.64194e-15 -2.28318e-14 0
7.10543e-15 -6.39488e-14 0
0 0 0

1.07383e-14 -2.41056e-14 0
-1.77636e-14 -8.88178e-14 0
0 0 0

3.64194e-15 -3.06562e-14 0
0 -1.42109e-13 0
0 0 0

6.5199e-16 -6.39457e-15 0
8.88178e-15 2.50466e-13 0
0 0 0

1.42014e-14 -4.0871e-15 0
-3.19744e-14 1.06581e-14 0
0 0 0

6.5199e-16 5.11884e-15 0
-4.9738e-14 2.62901e-13 0
0 0 0

1.42014e-14 1.0141e-14 0
-7.10543e-15 7.81597e-14 0
0 0 0

SCALARS active double 1
LOOKUP_TABLE default
1
1
1
1
1
1
1
1
1
1
1
1
1
1
1
1
1
1
1
1
1
1
1
1
1
1
1
1
1
1
1
1
1
1
1
1
1
1
1
1
1
1
1
1
1
1
1
1
1
1
1
1
1
1
1
1
1
1
1
1
1
1
1
1
SCALARS extent double 1
LOOKUP_TABLE default
0.0125
0.0125
0.0125
0.0125
0.0125
0.0125
0.0125
0.0125
0.0125
0.0125
0.0125
0.0125
0.0125
0.0125
0.0125
0.0125
0.0125
0.0125
0.0125
0.0125
0.0125
0.0125
0.0125
0.0125
0.0125
0.0125
0.0125
0.0125
0.0125
0.0125
0.0125
0.0125
0.0125
0.0125
0.0125
0.0125
0.0125
0.0125
0.0125
0.0125
0.0125
0.0125
0.0125
0.0125
0.0125
0.0125
0.0125
0.0125
0.0125
0.0125
0.0125
0.0125
0.0125
0.0125
0.0125
0.0125
0.0125
0.0125
0.0125
0.0125
0.0125
0.0125
0.0125
0.0125
SCALARS pressure double 1
LOOKUP_TABLE default
-4.94442e-11
-6.28131e-12
-5.36758e-11
2.86514e-11
-3.17248e-11
1.93171e-11
-4.16446e-11
2.72619e-12
1.25773e-10
-1.20881e-11
9.16438e-11
-4.16477e-11
-4.51839e-11
2.79005e-11
-5.75774e-11
1.71059e-11
-3.50362e-11
2.1135e-11
-8.51379e-11
2.40008e-11
-4.47354e-11
5.78073e-11
4.19656e-12
4.25394e-11
9.82305e-11
4.82291e-12
1.05922e-10
-2.61176e-11
-4.55062e-11
3.22906e-11
-9.56305e-11
2.13041e-11
-2.67034e-11
1.99029e-11
-5.56467e-11
2.79451e-11
-7.85165e-12
3.14534e-11
8.14019e-12
4.93464e-11
1.09522e-10
-1.41366e-11
9.75105e-11
-1.86492e-11
-5.05738e-11
1.25616e-11
-6.4872e-11
-5.85885e-12
-6.92094e-11
1.80646e-11
-3.12571e-11
-2.1575e-11
-5.62365e-11
3.51326e-11
-3.97254e-11
2.08431e-11
1.06859e-10
-1.66663e-11
1.0276e-10
-7.7174e-12
-7.37617e-11
1.97017e-11
-5.53448e-11
1.20597e-11
SCALARS density double 1
LOOKUP_TABLE default
1000
1000
1000
1000
1000
1000
1000
1000
1000
1000
1000
1000
1000
1000
1000
1000
1000
1000
1000
1000
1000
1000
1000
1000
1000
1000
1000
1000
1000
1000
1000
1000
1000
1000
1000
1000
1000
1000
1000
1000
1000
1000
1000
1000
1000
1000
1000
1000
1000
1000
1000
1000
1000
1000
1000
1000
1000
1000
1000
1000
1000
1000
1000
1000
