# vtk DataFile Version 3.0
Frame: 55, Time: 0.917
ASCII
DATASET UNSTRUCTURED_GRID
POINTS 64 double
0.276191 0.0685651 0 
0.25199 0.0590559 0 
0.266486 0.0899377 0 
0.241789 0.0816945 0 
0.229441 0.052522 0 
0.205037 0.0503726 0 
0.219951 0.076271 0 
0.194816 0.0736268 0 
0.184421 0.0471127 0 
0.164655 0.0403911 0 
0.171352 0.0697152 0 
0.148122 0.0623064 0 
0.138821 0.0386099 0 
0.123254 0.0312561 0 
0.120984 0.0567506 0 
0.101302 0.04572 0 
0.256239 0.11113 0 
0.233038 0.104259 0 
0.254102 0.133577 0 
0.228748 0.127169 0 
0.211578 0.0998924 0 
0.186981 0.0962954 0 
0.205454 0.12376 0 
0.180893 0.118371 0 
0.161981 0.0897598 0 
0.138498 0.0821321 0 
0.155215 0.111454 0 
0.129041 0.105593 0 
0.111855 0.0769465 0 
0.0867892 0.0688911 0 
0.102929 0.0995338 0 
0.0786851 0.0930964 0 
0.251589 0.157187 0 
0.224683 0.149067 0 
0.246543 0.179196 0 
0.219707 0.171735 0 
0.199887 0.145703 0 
0.174686 0.140616 0 
0.195566 0.169309 0 
0.169857 0.165595 0 
0.149738 0.134281 0 
0.12517 0.129114 0 
0.144242 0.157885 0 
0.119879 0.153587 0 
0.0988446 0.121861 0 
0.0741611 0.116717 0 
0.0922825 0.146817 0 
0.0668752 0.142916 0 
0.242833 0.201 0 
0.216118 0.19433 0 
0.236617 0.222749 0 
0.211859 0.219039 0 
0.191521 0.194425 0 
0.165853 0.188836 0 
0.186697 0.219722 0 
0.160729 0.212633 0 
0.14009 0.181374 0 
0.115134 0.177878 0 
0.135839 0.206512 0 
0.111289 0.202164 0 
0.0893668 0.171255 0 
0.0641039 0.16769 0 
0.0871486 0.195106 0 
0.0624261 0.192833 0 
CELLS 64 128
1 0
1 1
1 2
1 3
1 4
1 5
1 6
1 7
1 8
1 9
1 10
1 11
1 12
1 13
1 14
1 15
1 16
1 17
1 18
1 19
1 20
1 21
1 22
1 23
1 24
1 25
1 26
1 27
1 28
1 29
1 30
1 31
1 32
1 33
1 34
1 35
1 36
1 37
1 38
1 39
1 40
1 41
1 42
1 43
1 44
1 45
1 46
1 47
1 48
1 49
1 50
1 51
1 52
1 53
1 54
1 55
1 56
1 57
1 58
1 59
1 60
1 61
1 62
1 63
CELL_TYPES 64
1
1
1
1
1
1
1
1
1
1
1
1
1
1
1
1
1
1
1
1
1
1
1
1
1
1
1
1
1
1
1
1
1
1
1
1
1
1
1
1
1
1
1
1
1
1
1
1
1
1
1
1
1
1
1
1
1
1
1
1
1
1
1
1
POINT_DATA 64
VECTORS displacement double
-0.136309 -0.343935 0 
-0.16051 -0.378444 0 
-0.171014 -0.322562 0 
-0.195711 -0.355806 0 
-0.183059 -0.409978 0 
-0.207463 -0.437127 0 
-0.217549 -0.386229 0 
-0.242684 -0.413873 0 
-0.228079 -0.465387 0 
-0.247845 -0.497109 0 
-0.266148 -0.442785 0 
-0.289378 -0.475194 0 
-0.273679 -0.52389 0 
-0.289246 -0.556244 0 
-0.316516 -0.505749 0 
-0.336198 -0.54178 0 
-0.206261 -0.30137 0 
-0.229462 -0.333241 0 
-0.233398 -0.278923 0 
-0.258752 -0.310331 0 
-0.250922 -0.362608 0 
-0.275519 -0.391205 0 
-0.282046 -0.33874 0 
-0.306607 -0.369129 0 
-0.300519 -0.42274 0 
-0.324002 -0.455368 0 
-0.332285 -0.401046 0 
-0.358459 -0.431907 0 
-0.350645 -0.485553 0 
-0.375711 -0.518609 0 
-0.384571 -0.462966 0 
-0.408815 -0.494404 0 
-0.260911 -0.255313 0 
-0.287817 -0.288433 0 
-0.290957 -0.233304 0 
-0.317793 -0.265765 0 
-0.312613 -0.316797 0 
-0.337814 -0.346884 0 
-0.341934 -0.293191 0 
-0.367643 -0.321905 0 
-0.362762 -0.378219 0 
-0.38733 -0.408386 0 
-0.393258 -0.354615 0 
-0.417621 -0.383913 0 
-0.413655 -0.440639 0 
-0.438339 -0.470783 0 
-0.445218 -0.415683 0 
-0.470625 -0.444584 0 
-0.319667 -0.2115 0 
-0.346382 -0.24317 0 
-0.350883 -0.189751 0 
-0.375641 -0.218461 0 
-0.370979 -0.268075 0 
-0.396647 -0.298664 0 
-0.400803 -0.242778 0 
-0.426771 -0.274867 0 
-0.42241 -0.331126 0 
-0.447366 -0.359622 0 
-0.451661 -0.305988 0 
-0.476211 -0.335336 0 
-0.473133 -0.391245 0 
-0.498396 -0.41981 0 
-0.500351 -0.367394 0 
-0.525074 -0.394667 0 
VECTORS velocity double
-0.832844 1.6606 0 
-1.09285 0.677498 0 
-0.553907 1.50983 0 
-0.466506 1.1976 0 
-0.298717 0.494161 0 
-0.370221 0.875493 0 
-0.00201545 0.812331 0 
-0.361145 1.2031 0 
0.576169 0.311193 0 
-0.100079 0.20555 0 
0.661988 0.682172 0 
0.222718 0.74985 0 
0.753999 0.537864 0 
0.472013 0.137377 0 
0.750893 1.09191 0 
0.492259 0.203561 0 
-0.295013 1.04773 0 
-0.398917 1.46548 0 
-0.0364689 1.53792 0 
-0.384914 1.59093 0 
0.0303983 1.29759 0 
0.00475336 1.0788 0 
-0.270708 1.53148 0 
-0.400873 1.21189 0 
0.395661 0.310945 0 
0.220172 0.218843 0 
-0.109439 0.774038 0 
-0.213458 1.09643 0 
0.481259 0.316388 0 
0.747441 0.218483 0 
0.275233 0.987038 0 
0.1943 0.61393 0 
0.140758 1.77628 0 
-0.122796 1.42151 0 
-0.470841 1.55298 0 
-0.302811 1.49872 0 
0.113741 1.58681 0 
0.328905 1.22306 0 
-0.388335 1.76257 0 
-0.372304 1.43182 0 
0.545611 0.717764 0 
0.402925 0.945787 0 
-0.286155 0.757344 0 
-0.530078 0.793713 0 
0.188719 0.203905 0 
-0.0159512 -0.0157515 0 
-0.280721 0.894481 0 
0.0630456 0.714063 0 
-0.420616 1.90447 0 
-0.480777 1.6007 0 
-0.507584 1.7564 0 
-0.630458 1.71519 0 
-0.517494 1.58789 0 
-0.337296 1.6063 0 
-0.758064 1.50427 0 
-0.805973 1.28591 0 
-0.375749 0.821046 0 
-0.710384 0.475545 0 
-0.901557 0.652266 0 
-0.410527 1.06622 0 
-0.0777732 0.734564 0 
-0.310533 0.687515 0 
-0.473708 0.80004 0 
-0.583514 0.557923 0 
SCALARS mass double 1
LOOKUP_TABLE default
0.625
0.625
0.625
0.625
0.625
0.625
0.625
0.625
0.625
0.625
0.625
0.625
0.625
0.625
0.625
0.625
0.625
0.625
0.625
0.625
0.625
0.625
0.625
0.625
0.625
0.625
0.625
0.625
0.625
0.625
0.625
0.625
0.625
0.625
0.625
0.625
0.625
0.625
0.625
0.625
0.625
0.625
0.625
0.625
0.625
0.625
0.625
0.625
0.625
0.625
0.625
0.625
0.625
0.625
0.625
0.625
0.625
0.625
0.625
0.625
0.625
0.625
0.625
0.625
SCALARS volume double 1
LOOKUP_TABLE default
0.000624224
0.000626439
0.000564936
0.000604337
0.000588811
0.000595263
0.000586243
0.000593523
0.000554969
0.00053449
0.000548751
0.000585563
0.000504153
0.000420015
0.000551725
0.000600266
0.000559135
0.000586391
0.000589179
0.000610583
0.000596207
0.000590099
0.00057641
0.000584721
0.000602125
0.000603296
0.000594716
0.000640579
0.000596249
0.000634188
0.000596482
0.000655055
0.000621921
0.000602218
0.000614519
0.000594343
0.000638915
0.000637315
0.000593201
0.000607114
0.000609847
0.000631278
0.000631042
0.000659836
0.000603625
0.000637192
0.000647115
0.000628237
0.000585208
0.000643989
0.000629893
0.00062031
0.00062544
0.000620989
0.000642798
0.00064415
0.000612035
0.000634226
0.000619737
0.000642541
0.000607363
0.000616643
0.000630818
0.000640186
VECTORS momentum double
-0.520528 1.03788 0 
-0.683032 0.423436 0 
-0.346192 0.943644 0 
-0.291566 0.748501 0 
-0.186698 0.308851 0 
-0.231388 0.547183 0 
-0.00125966 0.507707 0 
-0.225716 0.751939 0 
0.360105 0.194495 0 
-0.0625495 0.128469 0 
0.413742 0.426358 0 
0.139199 0.468656 0 
0.471249 0.336165 0 
0.295008 0.0858608 0 
0.469308 0.682444 0 
0.307662 0.127226 0 
-0.184383 0.654829 0 
-0.249323 0.915924 0 
-0.022793 0.961202 0 
-0.240571 0.994332 0 
0.0189989 0.810995 0 
0.00297085 0.674252 0 
-0.169193 0.957176 0 
-0.250545 0.757429 0 
0.247288 0.19434 0 
0.137607 0.136777 0 
-0.0683991 0.483774 0 
-0.133411 0.68527 0 
0.300787 0.197743 0 
0.46715 0.136552 0 
0.172021 0.616899 0 
0.121437 0.383706 0 
0.0879739 1.11017 0 
-0.0767473 0.888442 0 
-0.294275 0.970615 0 
-0.189257 0.936702 0 
0.0710884 0.991754 0 
0.205566 0.764415 0 
-0.242709 1.1016 0 
-0.23269 0.894885 0 
0.341007 0.448603 0 
0.251828 0.591117 0 
-0.178847 0.47334 0 
-0.331299 0.496071 0 
0.11795 0.127441 0 
-0.00996947 -0.00984469 0 
-0.175451 0.559051 0 
0.0394035 0.446289 0 
-0.262885 1.1903 0 
-0.300486 1.00044 0 
-0.31724 1.09775 0 
-0.394036 1.07199 0 
-0.323434 0.992431 0 
-0.21081 1.00394 0 
-0.47379 0.940168 0 
-0.503733 0.803695 0 
-0.234843 0.513154 0 
-0.44399 0.297216 0 
-0.563473 0.407666 0 
-0.25658 0.666389 0 
-0.0486082 0.459103 0 
-0.194083 0.429697 0 
-0.296067 0.500025 0 
-0.364696 0.348702 0 
VECTORS body_force double
0 -9.81 0 
0 -9.81 0 
0 -9.81 0 
0 -9.81 0 
0 -9.81 0 
0 -9.81 0 
0 -9.81 0 
0 -9.81 0 
0 -9.81 0 
0 -9.81 0 
0 -9.81 0 
0 -9.81 0 
0 -9.81 0 
0 -9.81 0 
0 -9.81 0 
0 -9.81 0 
0 -9.81 0 
0 -9.81 0 
0 -9.81 0 
0 -9.81 0 
0 -9.81 0 
0 -9.81 0 
0 -9.81 0 
0 -9.81 0 
0 -9.81 0 
0 -9.81 0 
0 -9.81 0 
0 -9.81 0 
0 -9.81 0 
0 -9.81 0 
0 -9.81 0 
0 -9.81 0 
0 -9.81 0 
0 -9.81 0 
0 -9.81 0 
0 -9.81 0 
0 -9.81 0 
0 -9.81 0 
0 -9.81 0 
0 -9.81 0 
0 -9.81 0 
0 -9.81 0 
0 -9.81 0 
0 -9.81 0 
0 -9.81 0 
0 -9.81 0 
0 -9.81 0 
0 -9.81 0 
0 -9.81 0 
0 -9.81 0 
0 -9.81 0 
0 -9.81 0 
0 -9.81 0 
0 -9.81 0 
0 -9.81 0 
0 -9.81 0 
0 -9.81 0 
0 -9.81 0 
0 -9.81 0 
0 -9.81 0 
0 -9.81 0 
0 -9.81 0 
0 -9.81 0 
0 -9.81 0 
TENSORS cauchy_stress double
-748.756 3469.07 0
3469.07 509.712 0
0 0 -71.7132

289.109 -3205.18 0
-3205.18 153.183 0
0 0 132.688

-6142.74 -1181.05 0
-1181.05 -13288 0
0 0 -5829.21

-4344.95 -615.242 0
-615.242 -2120.31 0
0 0 -1939.58

-3905.75 -13788 0
-13788 -7564.82 0
0 0 -3441.17

3842.76 -15242.5 0
-15242.5 -13217.4 0
0 0 -2812.4

-7861.01 -3183.24 0
-3183.24 -4449.99 0
0 0 -3693.3

236.042 -12455.5 0
-12455.5 -10173.5 0
0 0 -2981.25

-2775.19 -22477 0
-22477 -20078.6 0
0 0 -6856.13

7182.68 -25046.4 0
-25046.4 -37267.1 0
0 0 -9025.32

-8831.11 -3582.85 0
-3582.85 -16189.5 0
0 0 -7506.18

3811.34 -8783.59 0
-8783.59 -16345.5 0
0 0 -3760.24

6471.14 -20834.3 0
-20834.3 -47792.7 0
0 0 -12396.5

-3578.11 -12293.3 0
-12293.3 -72856.8 0
0 0 -22930.5

-5849.21 -107.426 0
-107.426 -18132 0
0 0 -7194.35

2932.52 -2797.56 0
-2797.56 -10697.7 0
0 0 -2329.55

-13045.6 -4502.22 0
-4502.22 -8369.84 0
0 0 -6424.65

-3922.47 -4487.82 0
-4487.82 -8339.94 0
0 0 -3678.72

-3930.86 -1677.94 0
-1677.94 -7419.47 0
0 0 -3405.1

3721.58 -353.514 0
-353.514 -8209.47 0
0 0 -1346.37

-4948.65 -4624.48 0
-4624.48 -4121.2 0
0 0 -2720.95

-951.645 -6951.82 0
-6951.82 -10098.8 0
0 0 -3315.12

-5809.07 -1116.75 0
-1116.75 -9754.69 0
0 0 -4669.13

-324.587 30.2988 0
30.2988 -12486.2 0
0 0 -3843.24

6325.94 -6837.24 0
-6837.24 -13496.4 0
0 0 -2151.15

3654.03 -9730.42 0
-9730.42 -10451 0
0 0 -2039.08

-1495.32 2128.19 0
2128.19 -8056.09 0
0 0 -2865.42

8115.65 2702.2 0
2702.2 -3380.86 0
0 0 1420.44

1683.07 -88.2281 0
-88.2281 -10739.5 0
0 0 -2716.91

2366.88 -959.249 0
-959.249 439.538 0
0 0 841.925

-1901.66 3575.15 0
3575.15 -7079.76 0
0 0 -2694.43

3649.88 -880.223 0
-880.223 5382.42 0
0 0 2709.69

3058.48 2041.02 0
2041.02 -4008.14 0
0 0 -284.9

2300.96 1022.59 0
1022.59 -9441.75 0
0 0 -2142.24

5437.08 756.462 0
756.462 -8689.24 0
0 0 -975.649

-170.249 -1710.37 0
-1710.37 -9501.82 0
0 0 -2901.62

6114.34 -3148.16 0
-3148.16 -1879.66 0
0 0 1270.4

6092.02 -6633.54 0
-6633.54 -2339.52 0
0 0 1125.75

-2394.74 -301.224 0
-301.224 -7647.24 0
0 0 -3012.59

-237.017 6635.84 0
6635.84 -5346.54 0
0 0 -1675.07

5840.58 -5400.06 0
-5400.06 -10560.6 0
0 0 -1415.99

7029.3 -3040.56 0
-3040.56 -5107.3 0
0 0 576.599

2977.33 3583.43 0
3583.43 -1127.25 0
0 0 555.023

6249.63 4564.62 0
4564.62 4181.01 0
0 0 3129.19

1883.36 34.659 0
34.659 -8575.31 0
0 0 -2007.59

844.103 2106.66 0
2106.66 2871.26 0
0 0 1114.61

7458.59 3082.26 0
3082.26 -771.606 0
0 0 2006.09

-1356.87 -4250.17 0
-4250.17 2350.41 0
0 0 298.062

-3695.27 3485.05 0
3485.05 -8955.7 0
0 0 -3795.29

6857.02 513.447 0
513.447 -1101.31 0
0 0 1726.71

2501.98 2296.92 0
2296.92 -1002.37 0
0 0 449.883

1022.43 -1359.23 0
-1359.23 -2471.06 0
0 0 -434.59

1545.38 936.686 0
936.686 -1410.06 0
0 0 40.5975

649.562 -303.272 0
-303.272 -1887.74 0
0 0 -371.452

4191.46 2777.13 0
2777.13 1208.37 0
0 0 1619.95

5291.42 3693.8 0
3693.8 512.269 0
0 0 1741.11

1428.4 96.23 0
96.23 -5459.43 0
0 0 -1209.31

4770.69 3246.9 0
3246.9 -1952.57 0
0 0 845.437

-1256.09 1741.67 0
1741.67 -370.057 0
0 0 -487.845

3208.01 3302.01 0
3302.01 2114.95 0
0 0 1596.89

-867.911 -285.75 0
-285.75 -4637.05 0
0 0 -1651.49

-2211.46 -216.765 0
-216.765 -377.403 0
0 0 -776.658

-1052.75 -339.427 0
-339.427 2834.76 0
0 0 534.602

3668.23 741.633 0
741.633 948.536 0
0 0 1385.03

TENSORS velocity_gradient double
-1.86978 6.60799 0
6.54089 4.23713 0
0 0 0

-4.65158 5.476 0
6.36539 5.79257 0
0 0 0

-0.976842 6.19548 0
5.1889 4.86171 0
0 0 0

-8.03164 4.65501 0
2.8245 6.51922 0
0 0 0

-10.3551 -1.03998 0
4.58453 11.0533 0
0 0 0

-10.1512 -1.2724 0
4.49604 12.1409 0
0 0 0

-8.59943 2.30576 0
3.2231 8.16842 0
0 0 0

-7.85364 -0.419897 0
5.95183 9.03588 0
0 0 0

-9.10681 0.704858 0
3.56057 11.9376 0
0 0 0

-8.19192 5.43929 0
3.02015 11.5423 0
0 0 0

-8.16631 -3.02425 0
5.80258 6.61898 0
0 0 0

-4.60179 -5.2341 0
3.38167 4.51781 0
0 0 0

-2.13765 9.04561 0
1.86442 9.88832 0
0 0 0

-1.7318 9.91385 0
1.51044 9.13106 0
0 0 0

-2.65446 -6.02354 0
2.52444 3.95728 0
0 0 0

-2.31993 8.85506 0
1.45917 7.55955 0
0 0 0

0.156847 5.26355 0
3.56075 5.2843 0
0 0 0

-5.57823 3.05719 0
1.46486 6.29701 0
0 0 0

1.07592 5.06155 0
1.44101 5.40929 0
0 0 0

-2.88057 2.30858 0
1.22949 6.0082 0
0 0 0

-6.06469 0.947183 0
1.63768 7.73358 0
0 0 0

-5.29611 -1.39113 0
8.54861 7.9792 0
0 0 0

-3.26551 -0.465831 0
1.71399 6.11861 0
0 0 0

-3.3948 -2.64321 0
9.79233 5.40241 0
0 0 0

-5.96468 -4.05598 0
7.92977 5.62213 0
0 0 0

-2.08679 -5.62524 0
2.87077 4.20029 0
0 0 0

-3.66181 -4.65773 0
8.98136 4.38087 0
0 0 0

-1.36246 -6.24765 0
3.25365 3.68987 0
0 0 0

-2.2013 -6.22664 0
2.80091 3.83337 0
0 0 0

-1.00173 -7.55884 0
2.00139 2.57055 0
0 0 0

-0.838992 -6.98854 0
3.43321 3.38611 0
0 0 0

0.897659 -8.18066 0
3.95638 1.93053 0
0 0 0

0.67721 -6.80007 0
0.481041 3.69461 0
0 0 0

-0.464758 -0.777317 0
1.17445 5.0601 0
0 0 0

-0.938916 -6.71874 0
1.5636 3.45054 0
0 0 0

0.47688 -6.82006 0
1.64715 2.71245 0
0 0 0

-0.988239 -1.27875 0
5.97937 5.86938 0
0 0 0

-1.65191 -3.12688 0
10.6784 5.15652 0
0 0 0

0.207693 -7.5475 0
9.23803 2.2929 0
0 0 0

-0.0259689 -8.93994 0
10.8365 2.71645 0
0 0 0

-0.885694 -5.02479 0
7.07099 4.20687 0
0 0 0

-0.0262134 -6.51352 0
3.82771 3.55129 0
0 0 0

0.653802 -9.59722 0
4.95634 2.86348 0
0 0 0

0.794515 -7.54902 0
4.48512 2.39439 0
0 0 0

0.188027 -7.67463 0
3.78575 3.10871 0
0 0 0

0.816354 -6.91484 0
4.03692 3.75347 0
0 0 0

-0.34006 -7.43431 0
3.13222 2.79439 0
0 0 0

-0.249927 -6.62475 0
3.20441 3.97995 0
0 0 0

1.16293 -4.97801 0
2.55166 2.60663 0
0 0 0

0.999233 -6.89958 0
2.2598 2.61918 0
0 0 0

1.73854 -3.5071 0
3.88487 1.26256 0
0 0 0

1.64047 -4.17781 0
3.63945 -0.415876 0
0 0 0

1.55492 -7.7272 0
10.3143 2.31588 0
0 0 0

1.26068 -9.1501 0
10.4115 2.78587 0
0 0 0

2.41046 -4.83633 0
9.29189 -0.638771 0
0 0 0

2.23696 -5.49404 0
9.62662 0.63014 0
0 0 0

-1.02153 -9.34928 0
5.46804 2.73898 0
0 0 0

-0.773119 -7.49654 0
5.34628 1.8308 0
0 0 0

-2.02068 -6.90488 0
6.44702 0.663854 0
0 0 0

-2.01753 -8.02813 0
6.27101 0.28671 0
0 0 0

-0.270407 -6.49731 0
3.157 1.16907 0
0 0 0

-0.320143 -6.85861 0
3.1235 0.925694 0
0 0 0

0.0152991 -6.56807 0
3.41658 0.968251 0
0 0 0

0.0387506 -6.88011 0
3.36525 0.911209 0
0 0 0

SCALARS active double 1
LOOKUP_TABLE default
1
1
1
1
1
1
1
1
1
1
1
1
1
1
1
1
1
1
1
1
1
1
1
1
1
1
1
1
1
1
1
1
1
1
1
1
1
1
1
1
1
1
1
1
1
1
1
1
1
1
1
1
1
1
1
1
1
1
1
1
1
1
1
1
SCALARS extent double 1
LOOKUP_TABLE default
0.0125
0.0125
0.0125
0.0125
0.0125
0.0125
0.0125
0.0125
0.0125
0.0125
0.0125
0.0125
0.0125
0.0125
0.0125
0.0125
0.0125
0.0125
0.0125
0.0125
0.0125
0.0125
0.0125
0.0125
0.0125
0.0125
0.0125
0.0125
0.0125
0.0125
0.0125
0.0125
0.0125
0.0125
0.0125
0.0125
0.0125
0.0125
0.0125
0.0125
0.0125
0.0125
0.0125
0.0125
0.0125
0.0125
0.0125
0.0125
0.0125
0.0125
0.0125
0.0125
0.0125
0.0125
0.0125
0.0125
0.0125
0.0125
0.0125
0.0125
0.0125
0.0125
0.0125
0.0125
SCALARS pressure double 1
LOOKUP_TABLE default
103.586
-191.66
8419.97
2801.61
4970.58
4062.36
5334.77
4306.25
9903.29
13036.6
10842.3
5431.46
17906
33121.8
10391.8
3364.91
9280.04
5313.71
4918.48
1944.75
3930.27
4788.51
6744.3
5551.34
3107.22
2945.33
4138.94
-2051.74
3924.43
-1216.11
3891.95
-3914
411.522
3094.34
1409.27
4191.23
-1835.03
-1626.08
4351.52
2419.54
2045.32
-832.865
-801.7
-4519.94
2899.85
-1609.99
-2897.69
-430.533
5482.09
-2494.14
-649.831
627.741
-58.6409
536.542
-2339.93
-2514.93
1746.78
-1221.19
704.665
-2306.62
2385.48
1121.84
-772.203
-2000.6
SCALARS density double 1
LOOKUP_TABLE default
1001.24
997.703
1106.32
1034.19
1061.46
1049.96
1066.11
1053.03
1126.19
1169.34
1138.95
1067.35
1239.7
1488.04
1132.81
1041.21
1117.8
1065.84
1060.8
1023.61
1048.29
1059.15
1084.3
1068.89
1037.99
1035.98
1050.92
975.68
1048.22
985.513
1047.81
954.118
1004.95
1037.83
1017.06
1051.58
978.22
980.676
1053.61
1029.46
1024.85
990.055
990.426
947.205
1035.41
980.866
965.825
994.847
1068
970.514
992.232
1007.56
999.297
1006.46
972.311
970.272
1021.18
985.453
1008.49
972.7
1029.04
1013.55
990.776
976.279
