# vtk DataFile Version 3.0
Frame: 56, Time: 0.934
ASCII
DATASET UNSTRUCTURED_GRID
POINTS 64 double
0.412473 0.272048 0 
0.434212 0.259051 0 
0.398028 0.249511 0 
0.420119 0.234941 0 
0.454961 0.245278 0 
0.47721 0.231918 0 
0.44103 0.222198 0 
0.463822 0.209784 0 
0.499441 0.219879 0 
0.52034 0.205312 0 
0.485987 0.19686 0 
0.506532 0.183086 0 
0.543647 0.195124 0 
0.5667 0.185399 0 
0.53055 0.172858 0 
0.552858 0.161055 0 
0.384486 0.228295 0 
0.405728 0.213572 0 
0.372055 0.206613 0 
0.394504 0.191668 0 
0.428295 0.200719 0 
0.451032 0.188896 0 
0.416807 0.178332 0 
0.437627 0.166434 0 
0.472475 0.175664 0 
0.493285 0.16192 0 
0.459635 0.15315 0 
0.482106 0.140976 0 
0.51715 0.150201 0 
0.54155 0.13904 0 
0.504705 0.129039 0 
0.527549 0.116099 0 
0.358699 0.184185 0 
0.380222 0.168628 0 
0.347867 0.160736 0 
0.368027 0.145926 0 
0.403136 0.157338 0 
0.424939 0.143182 0 
0.390741 0.134437 0 
0.411922 0.121636 0 
0.446892 0.129621 0 
0.469881 0.118512 0 
0.433145 0.10872 0 
0.454411 0.0973226 0 
0.492071 0.106595 0 
0.514605 0.0933526 0 
0.476399 0.0857515 0 
0.500683 0.0742542 0 
0.33684 0.13935 0 
0.35675 0.12428 0 
0.317382 0.119132 0 
0.338604 0.100307 0 
0.378042 0.113098 0 
0.400081 0.0981792 0 
0.362825 0.0896643 0 
0.385757 0.0752423 0 
0.42063 0.0858591 0 
0.441523 0.0745187 0 
0.405592 0.0625085 0 
0.428829 0.0512975 0 
0.465732 0.0629605 0 
0.490671 0.0543965 0 
0.454858 0.0416761 0 
0.481309 0.0356933 0 
CELLS 64 128
1 0
1 1
1 2
1 3
1 4
1 5
1 6
1 7
1 8
1 9
1 10
1 11
1 12
1 13
1 14
1 15
1 16
1 17
1 18
1 19
1 20
1 21
1 22
1 23
1 24
1 25
1 26
1 27
1 28
1 29
1 30
1 31
1 32
1 33
1 34
1 35
1 36
1 37
1 38
1 39
1 40
1 41
1 42
1 43
1 44
1 45
1 46
1 47
1 48
1 49
1 50
1 51
1 52
1 53
1 54
1 55
1 56
1 57
1 58
1 59
1 60
1 61
1 62
1 63
CELL_TYPES 64
1
1
1
1
1
1
1
1
1
1
1
1
1
1
1
1
1
1
1
1
1
1
1
1
1
1
1
1
1
1
1
1
1
1
1
1
1
1
1
1
1
1
1
1
1
1
1
1
1
1
1
1
1
1
1
1
1
1
1
1
1
1
1
1
POINT_DATA 64
VECTORS displacement double
-0.100027 -0.340452 0 
-0.0782876 -0.378449 0 
-0.139472 -0.362989 0 
-0.117381 -0.402559 0 
-0.0575391 -0.417222 0 
-0.0352897 -0.455582 0 
-0.0964705 -0.440302 0 
-0.0736779 -0.477716 0 
-0.0130589 -0.492621 0 
0.00784029 -0.532188 0 
-0.0515129 -0.51564 0 
-0.0309678 -0.554414 0 
0.0311471 -0.567376 0 
0.0542003 -0.602101 0 
-0.00694994 -0.589642 0 
0.0153577 -0.626445 0 
-0.178014 -0.384205 0 
-0.156772 -0.423928 0 
-0.215445 -0.405887 0 
-0.192996 -0.445832 0 
-0.134205 -0.461781 0 
-0.111468 -0.498604 0 
-0.170693 -0.484168 0 
-0.149873 -0.521066 0 
-0.0900246 -0.536836 0 
-0.0692145 -0.57558 0 
-0.127865 -0.55935 0 
-0.105394 -0.596524 0 
-0.04535 -0.612299 0 
-0.0209505 -0.64846 0 
-0.0827945 -0.633461 0 
-0.0599507 -0.671401 0 
-0.253801 -0.428315 0 
-0.232278 -0.468872 0 
-0.289633 -0.451764 0 
-0.269473 -0.491574 0 
-0.209364 -0.505162 0 
-0.187561 -0.544318 0 
-0.246759 -0.528063 0 
-0.225578 -0.565864 0 
-0.165608 -0.582879 0 
-0.142619 -0.618988 0 
-0.204355 -0.60378 0 
-0.183089 -0.640177 0 
-0.120429 -0.655905 0 
-0.0978945 -0.694147 0 
-0.161101 -0.676748 0 
-0.136817 -0.713246 0 
-0.32566 -0.47315 0 
-0.30575 -0.51322 0 
-0.370118 -0.493368 0 
-0.348896 -0.537193 0 
-0.284458 -0.549402 0 
-0.262419 -0.589321 0 
-0.324675 -0.572836 0 
-0.301743 -0.612258 0 
-0.24187 -0.626641 0 
-0.220977 -0.662981 0 
-0.281908 -0.649991 0 
-0.258671 -0.686203 0 
-0.196768 -0.699539 0 
-0.171829 -0.733103 0 
-0.232642 -0.720824 0 
-0.206191 -0.751807 0 
VECTORS velocity double
-0.785003 1.71976 0 
-0.733164 1.89892 0 
-0.622963 1.49269 0 
-0.207355 1.67203 0 
-0.319891 2.08376 0 
-0.404049 1.92953 0 
-0.639648 2.00711 0 
-0.55302 1.95841 0 
-0.433679 2.19327 0 
-0.584975 2.04106 0 
-0.350471 2.04855 0 
-0.792606 1.89774 0 
-0.730741 2.11951 0 
-0.45261 2.54727 0 
-0.307142 1.9548 0 
-0.400786 2.27619 0 
-0.534415 1.46064 0 
-0.280558 1.51271 0 
-0.182305 0.791355 0 
-0.211692 1.9855 0 
-0.378458 1.81689 0 
-0.210647 1.53727 0 
-0.124266 1.98901 0 
-0.308514 1.75842 0 
-0.2753 1.84592 0 
-0.508387 1.92334 0 
-0.191814 1.44833 0 
-0.0612729 1.67539 0 
-0.515086 1.89577 0 
-0.0252968 2.18019 0 
-0.0379357 1.76065 0 
-0.0377131 2.58384 0 
-0.181117 0.900239 0 
0.135797 1.38957 0 
-0.135066 0.921117 0 
-0.105297 1.54372 0 
0.509507 1.57258 0 
0.174786 1.55818 0 
0.0373177 1.07424 0 
0.405265 1.37547 0 
0.327623 1.5104 0 
0.0485432 1.51897 0 
0.355813 0.847494 0 
-0.0836614 1.40333 0 
0.210839 1.21197 0 
0.291797 2.08362 0 
0.34928 1.55503 0 
-0.146393 1.62092 0 
0.63316 0.549963 0 
0.595708 1.47407 0 
0.31626 0.0625697 0 
0.922715 0.889053 0 
0.411817 1.41583 0 
0.722761 1.31492 0 
0.580164 1.4801 0 
0.568198 1.19013 0 
0.860241 1.18903 0 
0.562089 1.26937 0 
0.469433 1.27172 0 
0.606669 1.23194 0 
0.62148 1.33245 0 
0.304629 1.23822 0 
-0.0557948 0.387953 0 
-0.260455 0.776996 0 
SCALARS mass double 1
LOOKUP_TABLE default
0.625
0.625
0.625
0.625
0.625
0.625
0.625
0.625
0.625
0.625
0.625
0.625
0.625
0.625
0.625
0.625
0.625
0.625
0.625
0.625
0.625
0.625
0.625
0.625
0.625
0.625
0.625
0.625
0.625
0.625
0.625
0.625
0.625
0.625
0.625
0.625
0.625
0.625
0.625
0.625
0.625
0.625
0.625
0.625
0.625
0.625
0.625
0.625
0.625
0.625
0.625
0.625
0.625
0.625
0.625
0.625
0.625
0.625
0.625
0.625
0.625
0.625
0.625
0.625
SCALARS volume double 1
LOOKUP_TABLE default
0.000624086
0.000614314
0.000639129
0.000613562
0.000628488
0.000630973
0.000624683
0.000619876
0.00061988
0.000619805
0.000628329
0.000622424
0.000625042
0.000634044
0.000633728
0.000613958
0.000620081
0.00062726
0.000613599
0.000643878
0.000624952
0.000620029
0.000603879
0.000623011
0.000612407
0.000590609
0.00064615
0.000617261
0.000634219
0.000610169
0.000605641
0.000624344
0.000650817
0.000640147
0.000607541
0.00057319
0.000639259
0.000616485
0.000635477
0.000604179
0.000640421
0.000614784
0.000577455
0.000603864
0.000590663
0.000627008
0.000607051
0.000576552
0.000603447
0.000641583
0.000607646
0.000656417
0.0006003
0.000638397
0.000624305
0.000595825
0.000601974
0.00064548
0.000643008
0.000599165
0.000623494
0.000607432
0.000540102
0.0004688
VECTORS momentum double
-0.490627 1.07485 0 
-0.458228 1.18683 0 
-0.389352 0.932929 0 
-0.129597 1.04502 0 
-0.199932 1.30235 0 
-0.252531 1.20596 0 
-0.39978 1.25444 0 
-0.345638 1.22401 0 
-0.27105 1.37079 0 
-0.365609 1.27566 0 
-0.219045 1.28034 0 
-0.495379 1.18609 0 
-0.456713 1.32469 0 
-0.282881 1.59204 0 
-0.191963 1.22175 0 
-0.250491 1.42262 0 
-0.33401 0.912903 0 
-0.175349 0.945443 0 
-0.113941 0.494597 0 
-0.132307 1.24094 0 
-0.236536 1.13556 0 
-0.131654 0.960793 0 
-0.0776665 1.24313 0 
-0.192821 1.09901 0 
-0.172063 1.1537 0 
-0.317742 1.20209 0 
-0.119884 0.905207 0 
-0.0382955 1.04712 0 
-0.321929 1.18486 0 
-0.0158105 1.36262 0 
-0.0237098 1.10041 0 
-0.0235707 1.6149 0 
-0.113198 0.562649 0 
0.0848731 0.868482 0 
-0.0844161 0.575698 0 
-0.0658105 0.964827 0 
0.318442 0.982862 0 
0.109241 0.973864 0 
0.0233235 0.6714 0 
0.25329 0.85967 0 
0.204765 0.944 0 
0.0303395 0.949355 0 
0.222383 0.529684 0 
-0.0522884 0.87708 0 
0.131774 0.757482 0 
0.182373 1.30226 0 
0.2183 0.971896 0 
-0.0914957 1.01307 0 
0.395725 0.343727 0 
0.372318 0.921292 0 
0.197662 0.0391061 0 
0.576697 0.555658 0 
0.257386 0.884893 0 
0.451726 0.821825 0 
0.362602 0.925061 0 
0.355124 0.74383 0 
0.537651 0.743147 0 
0.351306 0.793356 0 
0.293396 0.794823 0 
0.379168 0.769964 0 
0.388425 0.832781 0 
0.190393 0.77389 0 
-0.0348718 0.24247 0 
-0.162784 0.485622 0 
VECTORS body_force double
0 -9.81 0 
0 -9.81 0 
0 -9.81 0 
0 -9.81 0 
0 -9.81 0 
0 -9.81 0 
0 -9.81 0 
0 -9.81 0 
0 -9.81 0 
0 -9.81 0 
0 -9.81 0 
0 -9.81 0 
0 -9.81 0 
0 -9.81 0 
0 -9.81 0 
0 -9.81 0 
0 -9.81 0 
0 -9.81 0 
0 -9.81 0 
0 -9.81 0 
0 -9.81 0 
0 -9.81 0 
0 -9.81 0 
0 -9.81 0 
0 -9.81 0 
0 -9.81 0 
0 -9.81 0 
0 -9.81 0 
0 -9.81 0 
0 -9.81 0 
0 -9.81 0 
0 -9.81 0 
0 -9.81 0 
0 -9.81 0 
0 -9.81 0 
0 -9.81 0 
0 -9.81 0 
0 -9.81 0 
0 -9.81 0 
0 -9.81 0 
0 -9.81 0 
0 -9.81 0 
0 -9.81 0 
0 -9.81 0 
0 -9.81 0 
0 -9.81 0 
0 -9.81 0 
0 -9.81 0 
0 -9.81 0 
0 -9.81 0 
0 -9.81 0 
0 -9.81 0 
0 -9.81 0 
0 -9.81 0 
0 -9.81 0 
0 -9.81 0 
0 -9.81 0 
0 -9.81 0 
0 -9.81 0 
0 -9.81 0 
0 -9.81 0 
0 -9.81 0 
0 -9.81 0 
0 -9.81 0 
TENSORS cauchy_stress double
-938.714 145.812 0
145.812 657.269 0
0 0 -84.4335

-2324.73 2204.16 0
2204.16 -991.717 0
0 0 -994.933

1372.73 -96.4522 0
-96.4522 2926.39 0
0 0 1289.73

-2649.96 -74.7385 0
-74.7385 -902.102 0
0 0 -1065.62

965.907 828.682 0
828.682 104.489 0
0 0 321.119

790.352 411.758 0
411.758 1038.79 0
0 0 548.743

669.526 1565.02 0
1565.02 -767.1 0
0 0 -29.2723

-2230.89 -2260.85 0
-2260.85 647.871 0
0 0 -474.905

-1986.84 542.251 0
542.251 404.945 0
0 0 -474.569

-1364.58 -1529.02 0
-1529.02 -240.463 0
0 0 -481.512

-1830.39 -363.696 0
-363.696 2851.92 0
0 0 306.457

-583.309 1166.8 0
1166.8 -210.959 0
0 0 -238.281

426.87 -1002.78 0
-1002.78 -413.818 0
0 0 3.91571

1272.02 1138.66 0
1138.66 1490.93 0
0 0 828.884

326.184 2347.2 0
2347.2 2340.89 0
0 0 800.122

-2028.28 -646.501 0
-646.501 -1399.69 0
0 0 -1028.39

-3345.39 -1036.07 0
-1036.07 1825.71 0
0 0 -455.904

1701.58 713.604 0
713.604 -1007.37 0
0 0 208.262

-3791.97 -230.473 0
-230.473 251.433 0
0 0 -1062.16

3498.48 1341.63 0
1341.63 2224.27 0
0 0 1716.82

-554.349 -1570.89 0
-1570.89 539.692 0
0 0 -4.39709

-1809.02 414.029 0
414.029 273.358 0
0 0 -460.698

-3434.42 -679.302 0
-679.302 -3176.64 0
0 0 -1983.32

1177.25 2514.84 0
2514.84 -1790.07 0
0 0 -183.847

-3653.17 588.851 0
588.851 -261.217 0
0 0 -1174.32

-3535.3 -2973.43 0
-2973.43 -7348.74 0
0 0 -3265.21

4579.65 2464.73 0
2464.73 1820.5 0
0 0 1920.04

1405.69 173.336 0
173.336 -3801.89 0
0 0 -718.859

6258.55 -1756.19 0
-1756.19 -3442.7 0
0 0 844.755

-4330.42 -863.508 0
-863.508 -288.096 0
0 0 -1385.55

-1651.97 1247.88 0
1247.88 -4398.86 0
0 0 -1815.25

-1159.82 -122.95 0
-122.95 957.74 0
0 0 -60.6228

4329.54 1603.24 0
1603.24 3454.6 0
0 0 2335.24

1891.28 1107.97 0
1107.97 2713.71 0
0 0 1381.5

-3426.96 -1204.3 0
-1204.3 -2021.43 0
0 0 -1634.52

-11921.4 -980.856 0
-980.856 -4719.97 0
0 0 -4992.41

2783.55 -426.812 0
-426.812 1554.58 0
0 0 1301.44

-3462.25 -1822.88 0
-1822.88 824.388 0
0 0 -791.36

2126.83 456.645 0
456.645 1070.25 0
0 0 959.122

-5764.88 4473.6 0
4473.6 -750.716 0
0 0 -1954.68

5338.29 -1442.7 0
-1442.7 -650.892 0
0 0 1406.22

-2568.23 2748.6 0
2748.6 -601.186 0
0 0 -950.826

-7825.1 898.144 0
898.144 -7390.62 0
0 0 -4564.72

-3180.83 1991.6 0
1991.6 -3434.99 0
0 0 -1984.75

-5423.61 -1693.51 0
-1693.51 -5442.94 0
0 0 -3259.96

731.656 -1068.31 0
-1068.31 -114.749 0
0 0 185.072

7269.23 7621.08 0
7621.08 -12872.9 0
0 0 -1681.11

-5497.24 -7682.17 0
-7682.17 -10019.2 0
0 0 -4654.94

-5554.46 3469.59 0
3469.59 -1194.34 0
0 0 -2024.64

1556.73 3958.91 0
3958.91 3479.26 0
0 0 1510.8

-5936.04 -2155.77 0
-2155.77 520.738 0
0 0 -1624.59

10992.4 1035.89 0
1035.89 -1560.79 0
0 0 2829.48

-5805.36 260.002 0
260.002 -1948.74 0
0 0 -2326.23

4113.17 1777.91 0
1777.91 -34.5211 0
0 0 1223.59

3692.96 2247.09 0
2247.09 -3906.98 0
0 0 -64.2064

-6896.54 -1159.12 0
-1159.12 -2296.52 0
0 0 -2757.92

-3478.1 5522.45 0
5522.45 -3740.54 0
0 0 -2165.59

3190.17 1179.81 0
1179.81 3010.35 0
0 0 1860.16

1126.24 2874.19 0
2874.19 4336.41 0
0 0 1638.8

-4221.81 2144.36 0
2144.36 -3896.45 0
0 0 -2435.48

2390.83 3351.82 0
3351.82 -2854.72 0
0 0 -139.168

-1615.05 -6469.12 0
-6469.12 -3867.97 0
0 0 -1644.91

-3769.13 -2866.53 0
-2866.53 -24306.4 0
0 0 -8422.66

-10309.7 -1770.71 0
-1770.71 -44993.4 0
0 0 -16590.9

TENSORS velocity_gradient double
0.876679 -6.15197 0
4.47262 0.414882 0
0 0 0

1.31146 -6.86942 0
5.3869 -1.09381 0
0 0 0

-0.00216949 -5.52524 0
7.2324 0.951794 0
0 0 0

-0.0464832 -3.88639 0
5.52765 1.19641 0
0 0 0

0.211042 -0.915462 0
2.37837 1.5828 0
0 0 0

-0.318315 -0.0961303 0
2.69358 0.685304 0
0 0 0

-1.26852 -1.89811 0
5.24958 1.64883 0
0 0 0

-1.1066 -0.574911 0
3.61027 1.24208 0
0 0 0

-0.290077 0.945071 0
2.92029 -0.170182 0
0 0 0

-1.28494 1.40732 0
2.99526 0.0182096 0
0 0 0

-1.85333 -3.99312 0
4.00339 3.46342 0
0 0 0

-1.24538 -3.49665 0
4.31281 3.08051 0
0 0 0

-1.56422 -4.74702 0
3.54789 0.468747 0
0 0 0

0.657801 -4.6768 0
5.74438 -0.199703 0
0 0 0

-0.895821 -4.30991 0
5.04013 1.38839 0
0 0 0

0.0814641 -4.82703 0
6.04042 0.085016 0
0 0 0

-0.873528 -6.29024 0
9.33407 1.84444 0
0 0 0

-2.05948 -5.26072 0
5.14926 0.891299 0
0 0 0

-1.47826 -6.71694 0
10.8313 2.5691 0
0 0 0

-1.46361 -8.18209 0
10.2903 1.41821 0
0 0 0

-3.0202 -5.89631 0
4.67191 2.44282 0
0 0 0

-2.85943 -7.2607 0
4.13355 4.1694 0
0 0 0

-3.60569 -8.10868 0
3.56737 2.5966 0
0 0 0

-3.80931 -7.75359 0
2.93144 3.70558 0
0 0 0

-3.6283 -5.59371 0
4.35078 4.00073 0
0 0 0

-4.80902 -3.80914 0
4.56837 3.67186 0
0 0 0

-5.19974 -6.62032 0
4.78582 4.71425 0
0 0 0

-5.03898 -7.79913 0
5.26725 4.40882 0
0 0 0

-0.367292 -6.77339 0
6.85179 1.6845 0
0 0 0

-0.517264 -7.80746 0
8.15716 -1.7515 0
0 0 0

-1.16678 -8.66582 0
8.97559 2.85362 0
0 0 0

-1.0845 -8.16022 0
11.0353 0.0383294 0
0 0 0

-1.05857 -6.91976 0
10.3943 -0.445712 0
0 0 0

-0.493556 -7.68744 0
9.57597 0.666186 0
0 0 0

-2.06581 -7.01404 0
8.90479 0.39301 0
0 0 0

-0.119249 -7.43055 0
7.90659 0.41738 0
0 0 0

-2.96544 -8.19179 0
4.13494 1.9565 0
0 0 0

-4.10756 -6.03868 0
1.95348 5.45765 0
0 0 0

-0.542502 -6.55173 0
6.34214 3.57629 0
0 0 0

-4.22503 -6.11111 0
1.46714 5.15777 0
0 0 0

-4.23083 -6.01572 0
2.65941 5.84598 0
0 0 0

-3.72631 -7.06613 0
6.38791 5.0346 0
0 0 0

-4.29567 -5.99461 0
1.1747 5.64014 0
0 0 0

-3.2386 -2.23773 0
5.83755 5.15803 0
0 0 0

-3.08148 -7.50456 0
6.92522 4.24622 0
0 0 0

-0.929315 -0.477905 0
13.7171 5.97616 0
0 0 0

-3.32896 -0.528467 0
6.40534 6.25935 0
0 0 0

-1.61517 0.0751319 0
11.2003 7.0141 0
0 0 0

-3.17474 -7.53615 0
12.8233 -0.457165 0
0 0 0

-0.935617 -7.8982 0
4.96778 -1.13107 0
0 0 0

-2.26639 -6.64038 0
15.1229 1.81052 0
0 0 0

-3.43566 -6.87456 0
16.2742 -0.47619 0
0 0 0

-1.38066 -7.05952 0
3.41189 1.80103 0
0 0 0

-2.87877 -3.56738 0
1.4338 1.25693 0
0 0 0

-1.1125 -0.522708 0
2.28891 1.39221 0
0 0 0

-0.186516 -1.99005 0
2.93596 0.366877 0
0 0 0

-4.76723 -2.3718 0
-0.579786 1.78716 0
0 0 0

-5.08324 -1.78443 0
-1.74304 3.94929 0
0 0 0

-4.82913 -2.74044 0
-2.35167 0.313469 0
0 0 0

-5.29932 3.40117 0
-3.56425 12.5217 0
0 0 0

-4.19893 -0.941398 0
5.19797 5.68627 0
0 0 0

-4.32659 0.778516 0
4.6793 11.477 0
0 0 0

-3.91151 6.43202 0
2.78606 21.8529 0
0 0 0

-3.24242 3.94158 0
3.18521 24.1375 0
0 0 0

SCALARS active double 1
LOOKUP_TABLE default
1
1
1
1
1
1
1
1
1
1
1
1
1
1
1
1
1
1
1
1
1
1
1
1
1
1
1
1
1
1
1
1
1
1
1
1
1
1
1
1
1
1
1
1
1
1
1
1
1
1
1
1
1
1
1
1
1
1
1
1
1
1
1
1
SCALARS extent double 1
LOOKUP_TABLE default
0.0125
0.0125
0.0125
0.0125
0.0125
0.0125
0.0125
0.0125
0.0125
0.0125
0.0125
0.0125
0.0125
0.0125
0.0125
0.0125
0.0125
0.0125
0.0125
0.0125
0.0125
0.0125
0.0125
0.0125
0.0125
0.0125
0.0125
0.0125
0.0125
0.0125
0.0125
0.0125
0.0125
0.0125
0.0125
0.0125
0.0125
0.0125
0.0125
0.0125
0.0125
0.0125
0.0125
0.0125
0.0125
0.0125
0.0125
0.0125
0.0125
0.0125
0.0125
0.0125
0.0125
0.0125
0.0125
0.0125
0.0125
0.0125
0.0125
0.0125
0.0125
0.0125
0.0125
0.0125
SCALARS pressure double 1
LOOKUP_TABLE default
121.96
1437.13
-1862.95
1539.23
-463.838
-792.628
42.2822
685.974
685.489
695.517
-442.661
344.183
-5.65602
-1197.28
-1155.73
1485.45
658.528
-300.823
1534.23
-2479.86
6.35135
665.453
2864.79
265.557
1696.24
4716.42
-2773.4
1038.35
-1220.2
2001.36
2622.03
87.5663
-3373.13
-1995.49
2360.97
7211.26
-1879.86
1143.08
-1385.4
2823.43
-2031.21
1373.42
6593.48
2866.86
4708.84
-267.327
2428.27
6723.81
2924.48
-2182.26
2346.63
-4087.03
3360.11
-1767.41
92.7425
3983.66
3128.08
-2686.89
-2367.15
3517.91
201.021
2375.98
12166.1
23964.7
SCALARS density double 1
LOOKUP_TABLE default
1001.46
1017.4
977.893
1018.64
994.449
990.534
1000.51
1008.27
1008.26
1008.38
994.702
1004.14
999.932
985.735
986.227
1017.99
1007.93
996.397
1018.58
970.68
1000.08
1008.02
1034.98
1003.19
1020.56
1058.23
967.267
1012.54
985.464
1024.31
1031.96
1001.05
960.331
976.338
1028.74
1090.39
977.694
1013.81
983.513
1034.46
975.92
1016.62
1082.34
1035
1058.13
996.797
1029.57
1084.03
1035.72
974.153
1028.56
952.139
1041.15
979.014
1001.11
1048.96
1038.25
968.272
971.994
1043.12
1002.42
1028.92
1157.19
1333.19
