# vtk DataFile Version 3.0
Frame: 18, Time: 0.3
ASCII
DATASET UNSTRUCTURED_GRID
POINTS 64 double
0.400845 0.0281698 0 
0.394921 0.0458607 0 
0.429505 0.0276344 0 
0.425008 0.0450591 0 
0.396091 0.0652122 0 
0.399291 0.0842205 0 
0.425481 0.0637668 0 
0.42763 0.0821897 0 
0.401834 0.10435 0 
0.404558 0.124908 0 
0.429425 0.102005 0 
0.431355 0.122729 0 
0.406893 0.146677 0 
0.40842 0.170025 0 
0.433027 0.144585 0 
0.434225 0.168152 0 
0.457811 0.0272286 0 
0.45498 0.0443896 0 
0.485836 0.0270377 0 
0.484823 0.0440772 0 
0.454978 0.0627283 0 
0.456115 0.0807378 0 
0.484687 0.0621985 0 
0.484909 0.079945 0 
0.457128 0.100208 0 
0.458236 0.120759 0 
0.485076 0.0990612 0 
0.485297 0.119024 0 
0.459202 0.142339 0 
0.459968 0.165374 0 
0.485486 0.139904 0 
0.485698 0.161627 0 
0.513877 0.0269233 0 
0.514708 0.0438825 0 
0.541948 0.0268848 0 
0.544638 0.0438036 0 
0.514481 0.0618742 0 
0.513819 0.0794751 0 
0.544352 0.0617526 0 
0.542842 0.0793288 0 
0.513176 0.0983739 0 
0.512526 0.117867 0 
0.541421 0.0981484 0 
0.539914 0.117292 0 
0.511944 0.138177 0 
0.511702 0.159147 0 
0.538567 0.137169 0 
0.537955 0.157864 0 
0.570343 0.0271375 0 
0.574783 0.0442247 0 
0.599114 0.0275651 0 
0.605072 0.0448607 0 
0.574159 0.0624006 0 
0.57177 0.0802211 0 
0.603907 0.0636119 0 
0.600639 0.0819296 0 
0.569674 0.0990983 0 
0.567326 0.11786 0 
0.597916 0.100908 0 
0.594744 0.11926 0 
0.565195 0.137298 0 
0.564104 0.157394 0 
0.591813 0.13836 0 
0.590163 0.157645 0 
CELLS 64 128
1 0
1 1
1 2
1 3
1 4
1 5
1 6
1 7
1 8
1 9
1 10
1 11
1 12
1 13
1 14
1 15
1 16
1 17
1 18
1 19
1 20
1 21
1 22
1 23
1 24
1 25
1 26
1 27
1 28
1 29
1 30
1 31
1 32
1 33
1 34
1 35
1 36
1 37
1 38
1 39
1 40
1 41
1 42
1 43
1 44
1 45
1 46
1 47
1 48
1 49
1 50
1 51
1 52
1 53
1 54
1 55
1 56
1 57
1 58
1 59
1 60
1 61
1 62
1 63
CELL_TYPES 64
1
1
1
1
1
1
1
1
1
1
1
1
1
1
1
1
1
1
1
1
1
1
1
1
1
1
1
1
1
1
1
1
1
1
1
1
1
1
1
1
1
1
1
1
1
1
1
1
1
1
1
1
1
1
1
1
1
1
1
1
1
1
1
1
POINT_DATA 64
VECTORS displacement double
-0.0116545 -0.38433 0 
-0.0175793 -0.391639 0 
-0.00799529 -0.384866 0 
-0.0124923 -0.392441 0 
-0.0164088 -0.397288 0 
-0.0132094 -0.403279 0 
-0.0120194 -0.398733 0 
-0.00987025 -0.40531 0 
-0.0106663 -0.40815 0 
-0.00794209 -0.412592 0 
-0.00807531 -0.410495 0 
-0.00614455 -0.414771 0 
-0.0056069 -0.415823 0 
-0.00408011 -0.417475 0 
-0.00447263 -0.417915 0 
-0.00327519 -0.419348 0 
-0.00468889 -0.385271 0 
-0.00751957 -0.39311 0 
-0.00166359 -0.385462 0 
-0.00267697 -0.393423 0 
-0.0075224 -0.399772 0 
-0.00638469 -0.406762 0 
-0.00281309 -0.400301 0 
-0.00259135 -0.407555 0 
-0.00537193 -0.412292 0 
-0.00426369 -0.416741 0 
-0.00242391 -0.413439 0 
-0.00220285 -0.418476 0 
-0.00329811 -0.420161 0 
-0.00253208 -0.422126 0 
-0.00201382 -0.422596 0 
-0.00180211 -0.425873 0 
0.00137747 -0.385577 0 
0.00220773 -0.393618 0 
0.00444795 -0.385615 0 
0.00713814 -0.393696 0 
0.00198104 -0.400626 0 
0.00131862 -0.408025 0 
0.00685216 -0.400747 0 
0.00534191 -0.408171 0 
0.000675882 -0.414126 0 
2.62176e-05 -0.419633 0 
0.00392133 -0.414352 0 
0.00241444 -0.420208 0 
-0.000556105 -0.424323 0 
-0.000798224 -0.428353 0 
0.00106664 -0.425331 0 
0.00045519 -0.429636 0 
0.00784293 -0.385362 0 
0.0122828 -0.393275 0 
0.0116144 -0.384935 0 
0.0175719 -0.392639 0 
0.0116594 -0.400099 0 
0.00927036 -0.407279 0 
0.0164066 -0.398888 0 
0.0131394 -0.40557 0 
0.00717416 -0.413402 0 
0.00482583 -0.41964 0 
0.0104158 -0.411592 0 
0.00724439 -0.41824 0 
0.00269528 -0.425202 0 
0.00160402 -0.430106 0 
0.00431327 -0.42414 0 
0.00266345 -0.429855 0 
VECTORS velocity double
-0.930431 -0.336491 0 
-0.874575 0.280018 0 
-0.648018 -0.282562 0 
-0.822117 0.453477 0 
-0.722739 0.418478 0 
-0.815287 0.658742 0 
-0.765227 0.268168 0 
-0.749218 0.264519 0 
-0.908755 0.892287 0 
-0.673151 0.827046 0 
-0.741136 0.452591 0 
-0.586638 0.456416 0 
-0.446173 0.943833 0 
-0.13754 0.848044 0 
-0.447713 0.566517 0 
-0.144182 0.65685 0 
-0.403467 -0.275536 0 
-0.623358 0.480156 0 
-0.157995 -0.295279 0 
-0.246437 0.447309 0 
-0.646403 0.216888 0 
-0.605882 0.100065 0 
-0.284373 0.164336 0 
-0.307727 0.0214671 0 
-0.565958 0.220485 0 
-0.487504 0.18819 0 
-0.333503 0.0950202 0 
-0.332925 -0.00415641 0 
-0.419893 0.216782 0 
-0.19573 0.0702099 0 
-0.328683 -0.0933911 0 
-0.263885 -0.89889 0 
0.0934862 -0.317447 0 
0.14136 0.408192 0 
0.351618 -0.342196 0 
0.539939 0.362636 0 
0.0973832 0.103007 0 
0.0199591 -0.0613567 0 
0.499135 0.0328908 0 
0.378965 -0.148051 0 
-0.0632181 -0.0165144 0 
-0.146509 -0.179123 0 
0.247203 -0.113542 0 
0.0738366 -0.336805 0 
-0.214039 -0.370112 0 
-0.204128 -1.40632 0 
-0.074768 -0.617542 0 
-0.0359301 -1.53396 0 
0.618212 -0.383664 0 
0.777233 0.27764 0 
0.932364 -0.461051 0 
0.890964 0.0751058 0 
0.699146 -0.000674253 0 
0.65388 -0.0939239 0 
0.766258 0.117869 0 
0.890973 0.254039 0 
0.593791 -0.0224054 0 
0.325558 -0.243427 0 
0.969026 0.317629 0 
0.611577 0.0661805 0 
0.0579182 -0.539061 0 
0.0469002 -1.62981 0 
0.19118 -0.179178 0 
0.0612977 -1.68901 0 
SCALARS mass double 1
LOOKUP_TABLE default
0.625
0.625
0.625
0.625
0.625
0.625
0.625
0.625
0.625
0.625
0.625
0.625
0.625
0.625
0.625
0.625
0.625
0.625
0.625
0.625
0.625
0.625
0.625
0.625
0.625
0.625
0.625
0.625
0.625
0.625
0.625
0.625
0.625
0.625
0.625
0.625
0.625
0.625
0.625
0.625
0.625
0.625
0.625
0.625
0.625
0.625
0.625
0.625
0.625
0.625
0.625
0.625
0.625
0.625
0.625
0.625
0.625
0.625
0.625
0.625
0.625
0.625
0.625
0.625
SCALARS volume double 1
LOOKUP_TABLE default
0.000411746
0.000580721
0.000409338
0.000608293
0.000542658
0.000557418
0.000541161
0.000546621
0.000571213
0.000564851
0.000572886
0.000567709
0.000602683
0.000610434
0.000602396
0.000617712
0.000394686
0.000590394
0.000391836
0.00058737
0.000526645
0.000538411
0.000518834
0.000530022
0.000570736
0.000565401
0.000556616
0.000547858
0.000593008
0.000600778
0.000570226
0.000561322
0.000390904
0.000586684
0.00039037
0.000584677
0.000517074
0.000529664
0.000516062
0.000529096
0.000552183
0.000539083
0.000545718
0.000527746
0.000558853
0.000549433
0.000546606
0.000545796
0.000403622
0.000600975
0.000404588
0.000571005
0.000529523
0.000538415
0.000529724
0.000547245
0.000542935
0.000520936
0.00053017
0.000511601
0.00053729
0.000524378
0.000527697
0.000495953
VECTORS momentum double
-0.581519 -0.210307 0 
-0.54661 0.175011 0 
-0.405011 -0.176601 0 
-0.513823 0.283423 0 
-0.451712 0.261549 0 
-0.509555 0.411714 0 
-0.478267 0.167605 0 
-0.468261 0.165324 0 
-0.567972 0.557679 0 
-0.420719 0.516904 0 
-0.46321 0.28287 0 
-0.366649 0.28526 0 
-0.278858 0.589896 0 
-0.0859627 0.530028 0 
-0.279821 0.354073 0 
-0.0901137 0.410531 0 
-0.252167 -0.17221 0 
-0.389599 0.300097 0 
-0.0987466 -0.18455 0 
-0.154023 0.279568 0 
-0.404002 0.135555 0 
-0.378676 0.0625405 0 
-0.177733 0.10271 0 
-0.192329 0.0134169 0 
-0.353724 0.137803 0 
-0.30469 0.117619 0 
-0.208439 0.0593876 0 
-0.208078 -0.00259775 0 
-0.262433 0.135489 0 
-0.122331 0.0438812 0 
-0.205427 -0.0583694 0 
-0.164928 -0.561806 0 
0.0584289 -0.198404 0 
0.0883502 0.25512 0 
0.219762 -0.213872 0 
0.337462 0.226647 0 
0.0608645 0.0643795 0 
0.0124744 -0.0383479 0 
0.311959 0.0205568 0 
0.236853 -0.092532 0 
-0.0395113 -0.0103215 0 
-0.0915683 -0.111952 0 
0.154502 -0.0709638 0 
0.0461479 -0.210503 0 
-0.133775 -0.23132 0 
-0.12758 -0.87895 0 
-0.04673 -0.385964 0 
-0.0224563 -0.958725 0 
0.386383 -0.23979 0 
0.485771 0.173525 0 
0.582727 -0.288157 0 
0.556852 0.0469411 0 
0.436966 -0.000421408 0 
0.408675 -0.0587024 0 
0.478911 0.0736682 0 
0.556858 0.158774 0 
0.37112 -0.0140034 0 
0.203474 -0.152142 0 
0.605641 0.198518 0 
0.382236 0.0413628 0 
0.0361989 -0.336913 0 
0.0293127 -1.01863 0 
0.119487 -0.111986 0 
0.038311 -1.05563 0 
VECTORS body_force double
0 -9.81 0 
0 -9.81 0 
0 -9.81 0 
0 -9.81 0 
0 -9.81 0 
0 -9.81 0 
0 -9.81 0 
0 -9.81 0 
0 -9.81 0 
0 -9.81 0 
0 -9.81 0 
0 -9.81 0 
0 -9.81 0 
0 -9.81 0 
0 -9.81 0 
0 -9.81 0 
0 -9.81 0 
0 -9.81 0 
0 -9.81 0 
0 -9.81 0 
0 -9.81 0 
0 -9.81 0 
0 -9.81 0 
0 -9.81 0 
0 -9.81 0 
0 -9.81 0 
0 -9.81 0 
0 -9.81 0 
0 -9.81 0 
0 -9.81 0 
0 -9.81 0 
0 -9.81 0 
0 -9.81 0 
0 -9.81 0 
0 -9.81 0 
0 -9.81 0 
0 -9.81 0 
0 -9.81 0 
0 -9.81 0 
0 -9.81 0 
0 -9.81 0 
0 -9.81 0 
0 -9.81 0 
0 -9.81 0 
0 -9.81 0 
0 -9.81 0 
0 -9.81 0 
0 -9.81 0 
0 -9.81 0 
0 -9.81 0 
0 -9.81 0 
0 -9.81 0 
0 -9.81 0 
0 -9.81 0 
0 -9.81 0 
0 -9.81 0 
0 -9.81 0 
0 -9.81 0 
0 -9.81 0 
0 -9.81 0 
0 -9.81 0 
0 -9.81 0 
0 -9.81 0 
0 -9.81 0 
TENSORS cauchy_stress double
-13050.8 -7032.67 0
-7032.67 -67207.8 0
0 0 -24077.6

6973.64 -5539.77 0
-5539.77 -21104.8 0
0 0 -4239.34

-13173.8 -5428.66 0
-5428.66 -68212.6 0
0 0 -24415.9

14077.6 -5917.17 0
-5917.17 -19288.3 0
0 0 -1563.22

2306.33 1477.83 0
1477.83 -29473.9 0
0 0 -8150.28

2470.54 -574.446 0
-574.446 -24477.5 0
0 0 -6602.09

5149.97 130.94 0
130.94 -32848.8 0
0 0 -8309.66

2428.05 -1083.39 0
-1083.39 -28196.5 0
0 0 -7730.53

2395.81 -946.131 0
-946.131 -19701.6 0
0 0 -5191.74

-189.349 -198.776 0
-198.776 -19270.1 0
0 0 -5837.85

2855.56 -1572 0
-1572 -19598.8 0
0 0 -5022.96

48.3864 -1164.48 0
-1164.48 -18537.4 0
0 0 -5546.71

1457.35 -700.275 0
-700.275 -8449.66 0
0 0 -2097.69

1162.93 -971.947 0
-971.947 -5697.91 0
0 0 -1360.5

1402.63 -1439.11 0
-1439.11 -8486.6 0
0 0 -2125.19

1822.14 -1349.26 0
-1349.26 -4077.92 0
0 0 -676.736

-17481 -2993.79 0
-2993.79 -70915.3 0
0 0 -26518.9

10552.5 -3747.56 0
-3747.56 -21506.5 0
0 0 -3286.21

-18123.6 -1344.72 0
-1344.72 -71666.3 0
0 0 -26937

10111.2 -1746.98 0
-1746.98 -22053 0
0 0 -3582.55

3478.15 411.514 0
411.514 -36405.9 0
0 0 -9878.32

2344.48 -134.12 0
-134.12 -31023.2 0
0 0 -8603.62

2609.42 -744.447 0
-744.447 -38410.7 0
0 0 -10740.4

1402.51 -1271.55 0
-1271.55 -33101.1 0
0 0 -9509.57

3382.94 -709.547 0
-709.547 -20849.2 0
0 0 -5239.87

312.233 -1613.38 0
-1613.38 -19584.8 0
0 0 -5781.76

1918.2 -1874.7 0
-1874.7 -24202.1 0
0 0 -6685.18

-1508.1 -2825.19 0
-2825.19 -23825.6 0
0 0 -7600.11

695.418 -3001.03 0
-3001.03 -10800.1 0
0 0 -3031.41

-433.004 -5184.48 0
-5184.48 -7168.12 0
0 0 -2280.34

-1516.25 -3960.44 0
-3960.44 -16121.9 0
0 0 -5291.44

-4246.43 -5928.19 0
-5928.19 -16418.3 0
0 0 -6199.42

-18125.7 675.083 0
675.083 -72122.1 0
0 0 -27074.3

10276.9 766.618 0
766.618 -22443.4 0
0 0 -3649.96

-18000.8 2335.36 0
2335.36 -72509.9 0
0 0 -27153.2

10233.6 2836.06 0
2836.06 -23059.1 0
0 0 -3847.64

2833.18 -1037.1 0
-1037.1 -39288 0
0 0 -10936.5

1986.97 -1103.75 0
-1103.75 -33815.7 0
0 0 -9548.62

2764.4 -2107.54 0
-2107.54 -39596.2 0
0 0 -11049.5

1970.09 -2148.98 0
-2148.98 -34005.2 0
0 0 -9610.53

2280.4 -1293.71 0
-1293.71 -26102 0
0 0 -7146.49

-1523.16 -1967.22 0
-1967.22 -26915.7 0
0 0 -8531.65

1646.18 -2363.44 0
-2363.44 -27732.7 0
0 0 -7825.94

-2688.51 -3151.85 0
-3151.85 -29837.8 0
0 0 -9757.91

-1683.68 -2536.57 0
-2536.57 -19828.7 0
0 0 -6453.71

-3725.91 -2420.54 0
-2420.54 -21055.7 0
0 0 -7434.47

-2906.8 -3461.96 0
-3461.96 -22866.8 0
0 0 -7732.07

-4116.82 -2669.34 0
-2669.34 -21942.1 0
0 0 -7817.69

-13686.6 5088.59 0
5088.59 -70404.1 0
0 0 -25227.2

13917.1 5493.91 0
5493.91 -21455.1 0
0 0 -2261.41

-13740.6 6851.2 0
6851.2 -69890.6 0
0 0 -25089.4

6537.87 5629.65 0
5629.65 -23913.7 0
0 0 -5212.75

4863.18 -867.11 0
-867.11 -36743.1 0
0 0 -9563.98

3026.97 174.289 0
174.289 -31704.4 0
0 0 -8603.22

1789.6 -1306.2 0
-1306.2 -33596.4 0
0 0 -9542.04

2806.19 541.06 0
541.06 -28355.2 0
0 0 -7664.7

1688.39 432.185 0
432.185 -28758 0
0 0 -8120.89

-3035.06 -466.108 0
-466.108 -31989 0
0 0 -10507.2

-161.57 11.4347 0
11.4347 -31483.5 0
0 0 -9493.52

-4052.42 -1591.67 0
-1591.67 -34448.9 0
0 0 -11550.4

-3682.92 -649.391 0
-649.391 -25396.7 0
0 0 -8723.89

-6916.16 -336.039 0
-336.039 -26841.1 0
0 0 -10127.2

-4655.34 -1699.43 0
-1699.43 -27888.8 0
0 0 -9763.23

-10104.2 -973.518 0
-973.518 -34370.7 0
0 0 -13342.5

TENSORS velocity_gradient double
-0.12744 -15.1122 0
1.22931 3.70972 0
0 0 0

-4.70195 -12.642 0
5.1362 4.48128 0
0 0 0

2.33331 -13.247 0
-0.682881 3.42928 0
0 0 0

3.7491 -12.3596 0
-1.16476 3.73932 0
0 0 0

-3.48339 -0.0819688 0
0.704448 10.2371 0
0 0 0

-0.38768 0.00794867 0
-5.05326 9.46624 0
0 0 0

4.08838 -0.0356335 0
-2.78489 5.69603 0
0 0 0

3.88783 -0.0590649 0
-4.88051 5.45118 0
0 0 0

1.5633 5.28941 0
-8.67646 5.04751 0
0 0 0

2.02087 6.77669 0
-9.68824 3.53059 0
0 0 0

3.46273 3.2961 0
-6.98001 2.92067 0
0 0 0

2.25494 5.19239 0
-8.61037 1.39522 0
0 0 0

0.803419 6.67868 0
-10.225 2.60599 0
0 0 0

0.496778 6.2319 0
-9.59512 -0.202001 0
0 0 0

0.860814 5.1268 0
-10.208 1.27655 0
0 0 0

0.494527 6.26766 0
-9.68551 1.23379 0
0 0 0

5.50131 -9.90459 0
-0.897541 2.66308 0
0 0 0

8.56811 -9.98343 0
-1.45292 2.73816 0
0 0 0

5.46775 -4.25844 0
-0.892065 1.74191 0
0 0 0

8.88292 -4.39367 0
-1.46042 1.73877 0
0 0 0

9.27787 -0.536726 0
-2.69157 2.52622 0
0 0 0

8.85977 -0.57265 0
-4.18058 2.42013 0
0 0 0

9.62555 -1.74874 0
-2.65527 0.0775485 0
0 0 0

8.88776 -1.75916 0
-4.12482 0.0568013 0
0 0 0

7.86629 1.31034 0
-6.19619 0.388312 0
0 0 0

5.97196 3.14781 0
-10.1755 -1.80256 0
0 0 0

7.93614 -0.837822 0
-6.05126 -3.11771 0
0 0 0

6.12079 0.427362 0
-9.86168 -7.53918 0
0 0 0

3.78424 3.05739 0
-14.7888 -1.99323 0
0 0 0

1.23031 5.1053 0
-21.9045 -1.56218 0
0 0 0

3.99298 0.409228 0
-14.3486 -7.57742 0
0 0 0

1.60198 2.13645 0
-20.7561 -10.7355 0
0 0 0

5.88132 1.61209 0
-0.84358 0.84376 0
0 0 0

9.57489 1.75198 0
-1.37391 0.802421 0
0 0 0

5.87805 7.71332 0
-0.84311 -0.0313615 0
0 0 0

9.39631 8.19023 0
-1.32774 -0.11114 0
0 0 0

10.7363 -2.61288 0
-1.67392 -1.29928 0
0 0 0

10.446 -2.60283 0
-1.83152 -1.29383 0
0 0 0

10.6645 -3.09261 0
-1.63067 -1.5529 0
0 0 0

10.4475 -3.07609 0
-1.83068 -1.5507 0
0 0 0

9.949 -2.48159 0
-2.25853 -5.35971 0
0 0 0

8.37599 -2.23725 0
-4.17491 -12.1175 0
0 0 0

9.95818 -3.74418 0
-2.24803 -6.57909 0
0 0 0

8.42083 -4.8347 0
-4.11899 -15.357 0
0 0 0

6.41011 -2.18628 0
-6.6267 -12.054 0
0 0 0

5.44787 0.660506 0
-7.75319 -15.4773 0
0 0 0

6.49094 -4.71589 0
-6.52589 -15.2088 0
0 0 0

5.43436 0.982018 0
-7.77817 -14.8826 0
0 0 0

3.36663 12.0013 0
-0.185792 -0.427355 0
0 0 0

5.46741 11.9465 0
-0.280205 -0.421173 0
0 0 0

0.889766 14.9848 0
-1.58046 -0.938888 0
0 0 0

-3.19322 13.6031 0
-4.85359 -0.724845 0
0 0 0

6.77882 -2.10124 0
0.706573 0.372497 0
0 0 0

7.60899 -2.20997 0
2.21139 0.175402 0
0 0 0

-1.12227 -0.371533 0
0.403325 4.88816 0
0 0 0

3.1465 -0.644133 0
5.9372 3.91728 0
0 0 0

8.06377 -4.74765 0
3.61906 -7.0588 0
0 0 0

6.50823 -7.70162 0
4.13541 -16.3367 0
0 0 0

5.27069 -7.14939 0
7.25315 -8.04782 0
0 0 0

5.65122 -10.8562 0
4.49721 -16.0429 0
0 0 0

4.31078 -7.48267 0
4.41271 -16.3643 0
0 0 0

3.07992 1.30994 0
2.46469 -18.141 0
0 0 0

4.20401 -10.4297 0
4.42618 -15.9924 0
0 0 0

3.08238 1.64331 0
2.41642 -24.6832 0
0 0 0

SCALARS active double 1
LOOKUP_TABLE default
1
1
1
1
1
1
1
1
1
1
1
1
1
1
1
1
1
1
1
1
1
1
1
1
1
1
1
1
1
1
1
1
1
1
1
1
1
1
1
1
1
1
1
1
1
1
1
1
1
1
1
1
1
1
1
1
1
1
1
1
1
1
1
1
SCALARS extent double 1
LOOKUP_TABLE default
0.0125
0.0125
0.0125
0.0125
0.0125
0.0125
0.0125
0.0125
0.0125
0.0125
0.0125
0.0125
0.0125
0.0125
0.0125
0.0125
0.0125
0.0125
0.0125
0.0125
0.0125
0.0125
0.0125
0.0125
0.0125
0.0125
0.0125
0.0125
0.0125
0.0125
0.0125
0.0125
0.0125
0.0125
0.0125
0.0125
0.0125
0.0125
0.0125
0.0125
0.0125
0.0125
0.0125
0.0125
0.0125
0.0125
0.0125
0.0125
0.0125
0.0125
0.0125
0.0125
0.0125
0.0125
0.0125
0.0125
0.0125
0.0125
0.0125
0.0125
0.0125
0.0125
0.0125
0.0125
SCALARS pressure double 1
LOOKUP_TABLE default
34778.7
6123.49
35267.4
2257.98
11772.6
9536.36
12002.8
11166.3
7499.18
8432.45
7255.38
8011.92
3030
1965.16
3069.72
977.507
38305.1
4746.74
38908.9
5174.79
14268.7
12427.5
15513.9
13736.1
7568.7
8351.43
9656.37
10977.9
4378.7
3293.82
7643.19
8954.71
39107.4
5272.16
39221.3
5557.71
15797.1
13792.5
15960.4
13881.9
10322.7
12323.5
11304.1
14094.8
9322.02
10738.7
11168.5
11292.2
36439.3
3266.48
36240.2
7529.53
13814.6
12426.9
13782.9
11071.2
11730.2
15177.1
13712.9
16683.9
12601.2
14628.2
14102.4
19272.5
SCALARS density double 1
LOOKUP_TABLE default
1517.93
1076.25
1526.85
1027.47
1151.74
1121.24
1154.92
1143.39
1094.16
1106.49
1090.97
1100.92
1037.03
1023.86
1037.52
1011.8
1583.54
1058.61
1595.05
1064.07
1186.76
1160.82
1204.62
1179.2
1095.08
1105.41
1122.86
1140.81
1053.95
1040.32
1096.06
1113.44
1598.86
1065.31
1601.04
1068.97
1208.72
1179.99
1211.1
1181.26
1131.87
1159.38
1145.28
1184.28
1118.36
1137.54
1143.42
1145.12
1548.48
1039.98
1544.78
1094.56
1180.31
1160.82
1179.86
1142.08
1151.15
1199.76
1178.87
1221.66
1163.25
1191.89
1184.39
1260.2
