# vtk DataFile Version 3.0
Frame: 28, Time: 0.467
ASCII
DATASET UNSTRUCTURED_GRID
POINTS 64 double
0.406131 0.0887786 0 
0.391529 0.112212 0 
0.423591 0.103793 0 
0.410672 0.127433 0 
0.374426 0.132547 0 
0.358709 0.151109 0 
0.396281 0.145597 0 
0.380034 0.163632 0 
0.344826 0.170808 0 
0.327561 0.189325 0 
0.364791 0.185957 0 
0.346974 0.204956 0 
0.313798 0.211735 0 
0.300223 0.232699 0 
0.333798 0.226785 0 
0.320564 0.24732 0 
0.442682 0.119363 0 
0.429777 0.141916 0 
0.464475 0.130579 0 
0.450105 0.15293 0 
0.414667 0.160048 0 
0.398355 0.178977 0 
0.435539 0.171847 0 
0.419449 0.190881 0 
0.382546 0.200666 0 
0.365593 0.218529 0 
0.404082 0.212381 0 
0.387806 0.231766 0 
0.353596 0.240502 0 
0.342107 0.265047 0 
0.375128 0.254026 0 
0.364399 0.277106 0 
0.485118 0.141189 0 
0.470558 0.16286 0 
0.5043 0.15457 0 
0.491008 0.176765 0 
0.456524 0.183115 0 
0.44086 0.20446 0 
0.478276 0.1968 0 
0.463301 0.21822 0 
0.426155 0.225264 0 
0.410605 0.243681 0 
0.447445 0.238187 0 
0.434977 0.256161 0 
0.397487 0.265762 0 
0.386063 0.287817 0 
0.422069 0.277571 0 
0.407111 0.299825 0 
0.524719 0.16525 0 
0.511509 0.188325 0 
0.54454 0.179916 0 
0.5335 0.201523 0 
0.500892 0.210394 0 
0.484267 0.230923 0 
0.522181 0.22421 0 
0.506093 0.246493 0 
0.469164 0.250967 0 
0.457235 0.270978 0 
0.49221 0.266944 0 
0.478069 0.287348 0 
0.442574 0.291015 0 
0.426941 0.31232 0 
0.461142 0.306132 0 
0.448033 0.327454 0 
CELLS 64 128
1 0
1 1
1 2
1 3
1 4
1 5
1 6
1 7
1 8
1 9
1 10
1 11
1 12
1 13
1 14
1 15
1 16
1 17
1 18
1 19
1 20
1 21
1 22
1 23
1 24
1 25
1 26
1 27
1 28
1 29
1 30
1 31
1 32
1 33
1 34
1 35
1 36
1 37
1 38
1 39
1 40
1 41
1 42
1 43
1 44
1 45
1 46
1 47
1 48
1 49
1 50
1 51
1 52
1 53
1 54
1 55
1 56
1 57
1 58
1 59
1 60
1 61
1 62
1 63
CELL_TYPES 64
1
1
1
1
1
1
1
1
1
1
1
1
1
1
1
1
1
1
1
1
1
1
1
1
1
1
1
1
1
1
1
1
1
1
1
1
1
1
1
1
1
1
1
1
1
1
1
1
1
1
1
1
1
1
1
1
1
1
1
1
1
1
1
1
POINT_DATA 64
VECTORS displacement double
-0.0063687 -0.323721 0 
-0.0209705 -0.325288 0 
-0.0139091 -0.308707 0 
-0.0268277 -0.310067 0 
-0.0380743 -0.329953 0 
-0.0537909 -0.336391 0 
-0.0412192 -0.316903 0 
-0.0574662 -0.323868 0 
-0.0676744 -0.341692 0 
-0.084939 -0.348175 0 
-0.0727094 -0.326543 0 
-0.0905261 -0.332544 0 
-0.0987016 -0.350765 0 
-0.112277 -0.354801 0 
-0.103702 -0.335715 0 
-0.116936 -0.34018 0 
-0.0198184 -0.293137 0 
-0.0327232 -0.295584 0 
-0.0230251 -0.281921 0 
-0.0373952 -0.28457 0 
-0.0478334 -0.302452 0 
-0.0641452 -0.308523 0 
-0.0519605 -0.290653 0 
-0.0680513 -0.296619 0 
-0.0799536 -0.311834 0 
-0.0969071 -0.318971 0 
-0.0834182 -0.300119 0 
-0.0996942 -0.305734 0 
-0.108904 -0.321998 0 
-0.120393 -0.322453 0 
-0.112372 -0.308474 0 
-0.123101 -0.310394 0 
-0.0273818 -0.271311 0 
-0.0419416 -0.27464 0 
-0.0332 -0.25793 0 
-0.046492 -0.260735 0 
-0.0559756 -0.279385 0 
-0.0716398 -0.28304 0 
-0.0592235 -0.2657 0 
-0.0741994 -0.26928 0 
-0.0863449 -0.287236 0 
-0.101895 -0.293819 0 
-0.0900547 -0.274313 0 
-0.102523 -0.281339 0 
-0.115013 -0.296738 0 
-0.126437 -0.299683 0 
-0.115431 -0.284929 0 
-0.130389 -0.287675 0 
-0.0377811 -0.24725 0 
-0.0509914 -0.249175 0 
-0.0429602 -0.232584 0 
-0.0539997 -0.235977 0 
-0.0616079 -0.252106 0 
-0.0782333 -0.256577 0 
-0.0653194 -0.23829 0 
-0.0814074 -0.241007 0 
-0.0933355 -0.261533 0 
-0.105265 -0.266522 0 
-0.09529 -0.245556 0 
-0.109431 -0.250152 0 
-0.119926 -0.271485 0 
-0.135559 -0.27518 0 
-0.126358 -0.256368 0 
-0.139467 -0.260046 0 
VECTORS velocity double
0.85368 -0.224657 0 
0.451722 -0.706737 0 
1.08889 0.312001 0 
-0.322938 0.32737 0 
0.477754 -0.581203 0 
-0.471476 -0.446198 0 
0.25261 -0.312265 0 
-0.328176 -0.247525 0 
0.0965209 -0.828513 0 
-0.528913 -0.838458 0 
-0.601861 -0.139937 0 
-0.615458 -0.17421 0 
-0.228707 -0.393263 0 
-0.544681 -0.565617 0 
-0.134831 -0.0544162 0 
-0.828185 -0.560907 0 
0.547002 0.0774381 0 
-0.41926 0.287679 0 
0.666287 0.0450718 0 
-0.513266 0.290224 0 
0.0481024 -0.267528 0 
-0.506012 -0.20937 0 
-0.239833 0.0841156 0 
-0.802715 0.116707 0 
-0.768204 -0.225232 0 
-0.662336 -0.647409 0 
-0.471767 0.0659642 0 
-0.372537 -0.381984 0 
-0.50852 0.00500001 0 
-0.743183 -0.043759 0 
-0.854577 0.589305 0 
-0.860948 0.1957 0 
0.410351 0.582286 0 
-0.0558093 0.390148 0 
-0.363545 0.4143 0 
-0.0821636 0.580702 0 
-0.106699 0.264759 0 
-0.303441 0.525638 0 
-0.439427 -0.00366962 0 
-0.55842 0.260448 0 
0.220148 0.408489 0 
-0.415315 -0.145859 0 
-0.263947 0.289603 0 
-1.08142 -0.208792 0 
-1.73094 -0.0470987 0 
-0.906405 0.0977638 0 
-1.56386 0.184812 0 
-0.368378 0.915925 0 
0.0846832 0.710452 0 
-0.0582541 0.64304 0 
-0.258672 1.47597 0 
-0.516062 0.972076 0 
-0.0272558 0.453424 0 
-0.158629 0.940765 0 
-0.488644 1.16844 0 
-0.715919 1.24529 0 
-0.556464 0.693165 0 
-1.11946 0.289332 0 
-1.2824 0.329285 0 
-1.3187 1.20059 0 
-0.737994 0.144507 0 
-0.69778 -0.431548 0 
-0.834437 0.875847 0 
-1.17294 0.690813 0 
SCALARS mass double 1
LOOKUP_TABLE default
0.625
0.625
0.625
0.625
0.625
0.625
0.625
0.625
0.625
0.625
0.625
0.625
0.625
0.625
0.625
0.625
0.625
0.625
0.625
0.625
0.625
0.625
0.625
0.625
0.625
0.625
0.625
0.625
0.625
0.625
0.625
0.625
0.625
0.625
0.625
0.625
0.625
0.625
0.625
0.625
0.625
0.625
0.625
0.625
0.625
0.625
0.625
0.625
0.625
0.625
0.625
0.625
0.625
0.625
0.625
0.625
0.625
0.625
0.625
0.625
0.625
0.625
0.625
0.625
SCALARS volume double 1
LOOKUP_TABLE default
0.000626829
0.000681372
0.000615421
0.000613964
0.000632123
0.000618411
0.000553588
0.000614189
0.000618905
0.00063892
0.000626488
0.000578225
0.000643564
0.000628861
0.000634084
0.000652811
0.00064969
0.000615191
0.000614415
0.000604859
0.000569567
0.000671744
0.000567133
0.000641643
0.000665843
0.00058022
0.000610946
0.000621541
0.000645351
0.000618308
0.000628724
0.000635046
0.000637783
0.000599367
0.000607352
0.000612422
0.000661445
0.000707318
0.000656994
0.000600426
0.000629797
0.000664594
0.000554614
0.00062055
0.000648455
0.000590882
0.0006646
0.000602139
0.000638374
0.000629689
0.000627004
0.000611054
0.000662988
0.000646287
0.000646184
0.000642545
0.000644243
0.000645249
0.000644489
0.00059287
0.00060606
0.000590469
0.000600536
0.000634837
VECTORS momentum double
0.53355 -0.14041 0 
0.282326 -0.441711 0 
0.680558 0.195001 0 
-0.201836 0.204606 0 
0.298596 -0.363252 0 
-0.294673 -0.278874 0 
0.157881 -0.195166 0 
-0.20511 -0.154703 0 
0.0603256 -0.517821 0 
-0.330571 -0.524036 0 
-0.376163 -0.0874606 0 
-0.384661 -0.108881 0 
-0.142942 -0.245789 0 
-0.340426 -0.35351 0 
-0.0842696 -0.0340101 0 
-0.517616 -0.350567 0 
0.341876 0.0483988 0 
-0.262037 0.179799 0 
0.416429 0.0281699 0 
-0.320791 0.18139 0 
0.030064 -0.167205 0 
-0.316258 -0.130857 0 
-0.149896 0.0525723 0 
-0.501697 0.0729418 0 
-0.480128 -0.14077 0 
-0.41396 -0.40463 0 
-0.294854 0.0412276 0 
-0.232835 -0.23874 0 
-0.317825 0.00312501 0 
-0.464489 -0.0273494 0 
-0.534111 0.368316 0 
-0.538093 0.122313 0 
0.25647 0.363929 0 
-0.0348808 0.243843 0 
-0.227216 0.258938 0 
-0.0513522 0.362939 0 
-0.0666867 0.165474 0 
-0.189651 0.328524 0 
-0.274642 -0.00229351 0 
-0.349013 0.16278 0 
0.137593 0.255306 0 
-0.259572 -0.0911618 0 
-0.164967 0.181002 0 
-0.675886 -0.130495 0 
-1.08184 -0.0294367 0 
-0.566503 0.0611024 0 
-0.977412 0.115508 0 
-0.230236 0.572453 0 
0.052927 0.444032 0 
-0.0364088 0.4019 0 
-0.16167 0.922479 0 
-0.322539 0.607547 0 
-0.0170349 0.28339 0 
-0.099143 0.587978 0 
-0.305403 0.730272 0 
-0.447449 0.778305 0 
-0.34779 0.433228 0 
-0.699663 0.180833 0 
-0.801502 0.205803 0 
-0.824187 0.750366 0 
-0.461247 0.0903166 0 
-0.436113 -0.269717 0 
-0.521523 0.547404 0 
-0.733087 0.431758 0 
VECTORS body_force double
0 -9.81 0 
0 -9.81 0 
0 -9.81 0 
0 -9.81 0 
0 -9.81 0 
0 -9.81 0 
0 -9.81 0 
0 -9.81 0 
0 -9.81 0 
0 -9.81 0 
0 -9.81 0 
0 -9.81 0 
0 -9.81 0 
0 -9.81 0 
0 -9.81 0 
0 -9.81 0 
0 -9.81 0 
0 -9.81 0 
0 -9.81 0 
0 -9.81 0 
0 -9.81 0 
0 -9.81 0 
0 -9.81 0 
0 -9.81 0 
0 -9.81 0 
0 -9.81 0 
0 -9.81 0 
0 -9.81 0 
0 -9.81 0 
0 -9.81 0 
0 -9.81 0 
0 -9.81 0 
0 -9.81 0 
0 -9.81 0 
0 -9.81 0 
0 -9.81 0 
0 -9.81 0 
0 -9.81 0 
0 -9.81 0 
0 -9.81 0 
0 -9.81 0 
0 -9.81 0 
0 -9.81 0 
0 -9.81 0 
0 -9.81 0 
0 -9.81 0 
0 -9.81 0 
0 -9.81 0 
0 -9.81 0 
0 -9.81 0 
0 -9.81 0 
0 -9.81 0 
0 -9.81 0 
0 -9.81 0 
0 -9.81 0 
0 -9.81 0 
0 -9.81 0 
0 -9.81 0 
0 -9.81 0 
0 -9.81 0 
0 -9.81 0 
0 -9.81 0 
0 -9.81 0 
0 -9.81 0 
TENSORS cauchy_stress double
-824.037 -88.665 0
-88.665 1385.98 0
0 0 168.582

-1999.54 341.59 0
341.59 18606.6 0
0 0 4982.13

-1131.62 -3448.02 0
-3448.02 -1838.64 0
0 0 -891.077

-1588.12 -1584.44 0
-1584.44 -1837.97 0
0 0 -1027.83

9939.54 -20.031 0
-20.031 -7760.35 0
0 0 653.757

1575.51 764.412 0
764.412 -3613.55 0
0 0 -611.413

968.222 762.163 0
762.163 -24301 0
0 0 -6999.85

-6439.79 -280.455 0
-280.455 3084.36 0
0 0 -1006.63

1233.43 2886.21 0
2886.21 -3118.05 0
0 0 -565.386

3404.98 -1345.07 0
-1345.07 830.968 0
0 0 1270.78

-4191.31 -6416.87 0
-6416.87 4648.72 0
0 0 137.223

-11076.8 654.634 0
654.634 -3882.48 0
0 0 -4487.77

1771.2 -919.595 0
-919.595 3857.66 0
0 0 1688.66

-726.269 -821.074 0
-821.074 1910.58 0
0 0 355.292

-4428.47 2554.05 0
2554.05 7203.41 0
0 0 832.482

2446.61 3314.76 0
3314.76 5925.64 0
0 0 2511.67

4588.67 4843.89 0
4843.89 2862.03 0
0 0 2235.21

-6382.66 -1020.01 0
-1020.01 3340.45 0
0 0 -912.662

-451.509 -2173.99 0
-2173.99 -2833.4 0
0 0 -985.473

-6418.26 -3917.09 0
-3917.09 118.873 0
0 0 -1889.81

-612.647 -1040.14 0
-1040.14 -17247.9 0
0 0 -5358.15

487.397 824.796 0
824.796 13383 0
0 0 4161.13

1378.97 -3983.93 0
-3983.93 -20063.3 0
0 0 -5605.3

2119.25 -4216.4 0
-4216.4 2934.77 0
0 0 1516.21

3194.73 1731.59 0
1731.59 8978.74 0
0 0 3652.04

710.88 2466.16 0
2466.16 -15008 0
0 0 -4289.14

4324.17 -3344.62 0
-3344.62 -8697.79 0
0 0 -1312.09

5222.66 -4922.36 0
-4922.36 -6289.98 0
0 0 -320.197

-1263.66 -1817.06 0
-1817.06 7425.79 0
0 0 1848.64

-773.982 1879.53 0
1879.53 -1296.08 0
0 0 -621.018

1150.07 -10.2759 0
-10.2759 -7.6535 0
0 0 342.726

1001.27 -1710.58 0
-1710.58 2065.27 0
0 0 919.961

-1267.98 2628.24 0
2628.24 5161.48 0
0 0 1168.05

-7040.28 -1742.82 0
-1742.82 -1013.08 0
0 0 -2416.01

-7985.29 273.814 0
273.814 2476.95 0
0 0 -1652.5

-5328.22 1925.56 0
1925.56 1418.68 0
0 0 -1172.86

7277.75 -2809.44 0
-2809.44 3621.34 0
0 0 3269.73

8970.79 2348.78 0
2348.78 14823.2 0
0 0 7138.18

6280.97 -2024.65 0
-2024.65 3319.73 0
0 0 2880.21

2603.06 -5657.51 0
-5657.51 -10317 0
0 0 -2314.19

-1162.47 -247.386 0
-247.386 2632.75 0
0 0 441.084

2846.57 3247.43 0
3247.43 8965.93 0
0 0 3543.75

694.612 -3981.06 0
-3981.06 -23671.4 0
0 0 -6893.05

7138.5 330.377 0
330.377 -8512.68 0
0 0 -412.255

780.409 1034.03 0
1034.03 6304.54 0
0 0 2125.48

-1746.74 -1201.57 0
-1201.57 -9048.41 0
0 0 -3238.55

11822.7 -5000.42 0
-5000.42 -8.46213 0
0 0 3544.28

-2393.07 -5992.13 0
-5992.13 -4772.97 0
0 0 -2149.81

2563.82 -2381.8 0
-2381.8 1507.94 0
0 0 1221.53

-2144.37 -994.542 0
-994.542 3581.69 0
0 0 431.194

-1887.07 802.443 0
802.443 2502.68 0
0 0 184.684

-4040.39 1677.67 0
1677.67 -299.185 0
0 0 -1301.87

8486.68 -2701.5 0
-2701.5 2860.55 0
0 0 3404.17

4048.64 2423.51 0
2423.51 2392.17 0
0 0 1932.24

2907.18 -7505.53 0
-7505.53 3503.07 0
0 0 1923.08

6577.01 1577.04 0
1577.04 -1252.91 0
0 0 1597.23

2288.73 4642.62 0
4642.62 3542.84 0
0 0 1749.47

-3487.75 7420.54 0
7420.54 9619.35 0
0 0 1839.48

7518.27 -2473.92 0
-2473.92 -1613.25 0
0 0 1771.51

-1187.76 -6300.98 0
-6300.98 -8961.67 0
0 0 -3044.83

-7982.1 -2262.31 0
-2262.31 2064.36 0
0 0 -1775.32

-12521.5 1190.46 0
1190.46 1591.75 0
0 0 -3278.92

951.306 -2719.59 0
-2719.59 -8629.82 0
0 0 -2303.55

-3487.91 6749.36 0
6749.36 6491.25 0
0 0 901.002

TENSORS velocity_gradient double
1.71721 -5.77328 0
6.61719 -1.67746 0
0 0 0

1.04211 -13.2846 0
9.83498 1.61759 0
0 0 0

1.62754 -12.3654 0
7.58184 0.348436 0
0 0 0

0.937562 -13.5938 0
7.18437 0.616958 0
0 0 0

1.07605 -13.3125 0
8.11 3.03668 0
0 0 0

1.05204 -8.6465 0
6.8095 2.68347 0
0 0 0

0.95547 -12.1594 0
7.03169 1.24405 0
0 0 0

0.931474 -6.07449 0
6.46185 1.36104 0
0 0 0

-0.598614 -5.65671 0
3.34188 2.3616 0
0 0 0

-0.940865 -5.50097 0
1.10837 4.03252 0
0 0 0

0.652858 -5.8866 0
6.12872 1.58569 0
0 0 0

-0.712104 -3.6708 0
2.33746 4.9189 0
0 0 0

-1.06202 -3.29779 0
1.89321 0.569617 0
0 0 0

0.378268 -3.00352 0
5.16697 -1.15954 0
0 0 0

-1.09874 -3.34706 0
4.13341 3.57537 0
0 0 0

-0.926651 -4.78049 0
6.88383 2.67067 0
0 0 0

1.19389 -14.5777 0
7.38611 -0.157407 0
0 0 0

0.494631 -14.1895 0
6.83576 0.148089 0
0 0 0

1.1363 -14.0629 0
6.94141 -0.594689 0
0 0 0

1.26226 -6.61625 0
6.66121 1.40573 0
0 0 0

0.87281 -5.39426 0
6.8683 1.40597 0
0 0 0

1.25951 -6.11973 0
6.65453 1.17984 0
0 0 0

1.59863 -4.09025 0
7.13375 1.88288 0
0 0 0

2.79135 -5.08643 0
7.56996 1.51855 0
0 0 0

0.260795 -5.90656 0
5.72527 2.67129 0
0 0 0

-0.86231 -4.54316 0
4.66158 4.83371 0
0 0 0

2.50127 -7.09558 0
7.12916 2.45931 0
0 0 0

-1.80152 -6.14416 0
3.77924 3.32966 0
0 0 0

-2.22158 -3.75823 0
3.67141 5.41589 0
0 0 0

0.541736 -5.6043 0
7.28264 4.63494 0
0 0 0

-2.803 -3.95364 0
2.64685 4.51861 0
0 0 0

-1.93237 -4.13963 0
2.64937 4.55418 0
0 0 0

1.68742 -12.971 0
6.75708 -0.959916 0
0 0 0

1.68051 -4.01423 0
6.37478 1.84513 0
0 0 0

-0.339139 -6.59511 0
10.162 0.950478 0
0 0 0

1.13941 -4.82004 0
6.13327 1.48548 0
0 0 0

0.881815 -3.46578 0
6.0183 2.08991 0
0 0 0

3.12405 -7.61232 0
7.61341 1.52337 0
0 0 0

0.405043 -5.20393 0
5.86252 1.86891 0
0 0 0

0.265877 -8.60492 0
6.52449 1.81301 0
0 0 0

2.52027 -7.86925 0
7.09604 1.82456 0
0 0 0

1.89997 -7.35327 0
6.59327 2.24278 0
0 0 0

1.48691 -8.50629 0
6.98458 1.39988 0
0 0 0

1.53264 -3.69496 0
5.99952 2.16132 0
0 0 0

-1.07738 -2.86132 0
3.59836 4.50347 0
0 0 0

-1.47233 -3.19652 0
2.68668 4.63067 0
0 0 0

0.972271 -3.22731 0
4.50936 3.07497 0
0 0 0

0.362815 -2.40689 0
3.03415 3.47034 0
0 0 0

-1.02828 -5.5075 0
10.8059 0.77445 0
0 0 0

-1.34551 -5.3283 0
10.2867 1.06775 0
0 0 0

-0.771677 -5.72603 0
10.0234 0.296601 0
0 0 0

-1.43876 -6.99257 0
10.0324 1.93215 0
0 0 0

-0.748641 -8.45071 0
8.39726 3.29946 0
0 0 0

0.308024 -8.53406 0
7.09258 2.76815 0
0 0 0

-1.26163 -8.23718 0
9.73127 3.18693 0
0 0 0

-1.30379 -8.89829 0
9.462 3.34378 0
0 0 0

-0.0188102 -7.30668 0
7.99155 2.04526 0
0 0 0

-1.9719 -4.85249 0
8.83669 1.51442 0
0 0 0

-1.47713 -8.85236 0
8.65676 2.96904 0
0 0 0

-3.81681 -7.25114 0
9.50762 2.38673 0
0 0 0

0.62444 -3.76321 0
3.57737 1.63906 0
0 0 0

-0.0524264 -2.62558 0
2.41478 1.87949 0
0 0 0

-3.81334 -0.641319 0
9.85076 0.596708 0
0 0 0

0.26394 -2.63321 0
4.89004 1.0054 0
0 0 0

SCALARS active double 1
LOOKUP_TABLE default
1
1
1
1
1
1
1
1
1
1
1
1
1
1
1
1
1
1
1
1
1
1
1
1
1
1
1
1
1
1
1
1
1
1
1
1
1
1
1
1
1
1
1
1
1
1
1
1
1
1
1
1
1
1
1
1
1
1
1
1
1
1
1
1
SCALARS extent double 1
LOOKUP_TABLE default
0.0125
0.0125
0.0125
0.0125
0.0125
0.0125
0.0125
0.0125
0.0125
0.0125
0.0125
0.0125
0.0125
0.0125
0.0125
0.0125
0.0125
0.0125
0.0125
0.0125
0.0125
0.0125
0.0125
0.0125
0.0125
0.0125
0.0125
0.0125
0.0125
0.0125
0.0125
0.0125
0.0125
0.0125
0.0125
0.0125
0.0125
0.0125
0.0125
0.0125
0.0125
0.0125
0.0125
0.0125
0.0125
0.0125
0.0125
0.0125
0.0125
0.0125
0.0125
0.0125
0.0125
0.0125
0.0125
0.0125
0.0125
0.0125
0.0125
0.0125
0.0125
0.0125
0.0125
0.0125
SCALARS pressure double 1
LOOKUP_TABLE default
-243.507
-7196.4
1287.11
1484.64
-944.316
883.152
10110.9
1454.02
816.669
-1835.58
-198.211
6482.34
-2439.17
-513.199
-1202.47
-3627.97
-3228.64
1318.29
1423.46
2729.73
7739.55
-6010.52
8096.54
-2190.07
-5275.17
6195.42
1895.24
462.507
-2670.25
897.026
-495.049
-1328.83
-1687.18
3489.79
2386.95
1694.13
-4722.94
-10310.7
-4160.3
3342.72
-637.121
-5118.75
9956.62
595.48
-3070.14
4677.9
-5119.51
3105.28
-1764.43
-622.836
-266.766
1880.48
-4917.13
-2791.01
-2777.78
-2307.11
-2527.01
-2657.02
-2558.85
4398.09
2564.35
4736.21
3327.36
-1301.45
SCALARS density double 1
LOOKUP_TABLE default
997.082
917.267
1015.57
1017.98
988.732
1010.65
1129
1017.6
1009.85
978.214
997.624
1080.89
971.154
993.861
985.674
957.398
961.997
1015.95
1017.23
1033.3
1097.32
930.413
1102.04
974.061
938.66
1077.18
1023
1005.57
968.465
1010.82
994.077
984.18
979.957
1042.77
1029.06
1020.54
944.901
883.62
951.302
1040.93
992.384
940.423
1126.91
1007.17
963.829
1057.74
940.415
1037.97
979.049
992.554
996.804
1022.82
942.702
967.062
967.216
972.694
970.131
968.619
969.761
1054.19
1031.25
1058.48
1040.74
984.504
