# vtk DataFile Version 3.0
Frame: 8, Time: 0.134
ASCII
DATASET UNSTRUCTURED_GRID
POINTS 64 double
0.5125 0.522444 0 
0.5125 0.547444 0 
0.5375 0.522444 0 
0.5375 0.547444 0 
0.5125 0.572444 0 
0.5125 0.597444 0 
0.5375 0.572444 0 
0.5375 0.597444 0 
0.5125 0.622444 0 
0.5125 0.647444 0 
0.5375 0.622444 0 
0.5375 0.647444 0 
0.5125 0.672444 0 
0.5125 0.697444 0 
0.5375 0.672444 0 
0.5375 0.697444 0 
0.5625 0.522444 0 
0.5625 0.547444 0 
0.5875 0.522444 0 
0.5875 0.547444 0 
0.5625 0.572444 0 
0.5625 0.597444 0 
0.5875 0.572444 0 
0.5875 0.597444 0 
0.5625 0.622444 0 
0.5625 0.647444 0 
0.5875 0.622444 0 
0.5875 0.647444 0 
0.5625 0.672444 0 
0.5625 0.697444 0 
0.5875 0.672444 0 
0.5875 0.697444 0 
0.6125 0.522444 0 
0.6125 0.547444 0 
0.6375 0.522444 0 
0.6375 0.547444 0 
0.6125 0.572444 0 
0.6125 0.597444 0 
0.6375 0.572444 0 
0.6375 0.597444 0 
0.6125 0.622444 0 
0.6125 0.647444 0 
0.6375 0.622444 0 
0.6375 0.647444 0 
0.6125 0.672444 0 
0.6125 0.697444 0 
0.6375 0.672444 0 
0.6375 0.697444 0 
0.6625 0.522444 0 
0.6625 0.547444 0 
0.6875 0.522444 0 
0.6875 0.547444 0 
0.6625 0.572444 0 
0.6625 0.597444 0 
0.6875 0.572444 0 
0.6875 0.597444 0 
0.6625 0.622444 0 
0.6625 0.647444 0 
0.6875 0.622444 0 
0.6875 0.647444 0 
0.6625 0.672444 0 
0.6625 0.697444 0 
0.6875 0.672444 0 
0.6875 0.697444 0 
CELLS 64 128
1 0
1 1
1 2
1 3
1 4
1 5
1 6
1 7
1 8
1 9
1 10
1 11
1 12
1 13
1 14
1 15
1 16
1 17
1 18
1 19
1 20
1 21
1 22
1 23
1 24
1 25
1 26
1 27
1 28
1 29
1 30
1 31
1 32
1 33
1 34
1 35
1 36
1 37
1 38
1 39
1 40
1 41
1 42
1 43
1 44
1 45
1 46
1 47
1 48
1 49
1 50
1 51
1 52
1 53
1 54
1 55
1 56
1 57
1 58
1 59
1 60
1 61
1 62
1 63
CELL_TYPES 64
1
1
1
1
1
1
1
1
1
1
1
1
1
1
1
1
1
1
1
1
1
1
1
1
1
1
1
1
1
1
1
1
1
1
1
1
1
1
1
1
1
1
1
1
1
1
1
1
1
1
1
1
1
1
1
1
1
1
1
1
1
1
1
1
POINT_DATA 64
VECTORS displacement double
5.60697e-17 -0.0900558 0 
-4.35342e-19 -0.0900558 0 
2.37529e-17 -0.0900558 0 
5.37325e-19 -0.0900558 0 
-1.22591e-17 -0.0900558 0 
3.11792e-17 -0.0900558 0 
1.65041e-20 -0.0900558 0 
2.86959e-17 -0.0900558 0 
6.2069e-17 -0.0900558 0 
7.18879e-17 -0.0900558 0 
5.5853e-17 -0.0900558 0 
6.98292e-17 -0.0900558 0 
8.98645e-17 -0.0900558 0 
1.07524e-16 -0.0900558 0 
8.7637e-17 -0.0900558 0 
1.04398e-16 -0.0900558 0 
-2.02646e-18 -0.0900558 0 
-2.17196e-18 -0.0900558 0 
-2.12685e-17 -0.0900558 0 
-8.56318e-18 -0.0900558 0 
6.9087e-18 -0.0900558 0 
2.79991e-17 -0.0900558 0 
8.41752e-18 -0.0900558 0 
2.90891e-17 -0.0900558 0 
5.14343e-17 -0.0900558 0 
6.71526e-17 -0.0900558 0 
4.8813e-17 -0.0900558 0 
6.38582e-17 -0.0900558 0 
8.44742e-17 -0.0900558 0 
1.00699e-16 -0.0900558 0 
8.03761e-17 -0.0900558 0 
9.64273e-17 -0.0900558 0 
-4.18809e-17 -0.0900558 0 
-1.50412e-17 -0.0900558 0 
-6.38635e-17 -0.0900558 0 
-2.16061e-17 -0.0900558 0 
9.90646e-18 -0.0900558 0 
2.96021e-17 -0.0900558 0 
1.13755e-17 -0.0900558 0 
2.95383e-17 -0.0900558 0 
4.5582e-17 -0.0900558 0 
6.00607e-17 -0.0900558 0 
4.17413e-17 -0.0900558 0 
5.57601e-17 -0.0900558 0 
7.54018e-17 -0.0900558 0 
9.12844e-17 -0.0900558 0 
6.95512e-17 -0.0900558 0 
8.52705e-17 -0.0900558 0 
-9.10331e-17 -0.0900558 0 
-2.33817e-17 -0.0900558 0 
-1.23389e-16 -0.0900558 0 
-2.03678e-17 -0.0900558 0 
1.77965e-17 -0.0900558 0 
2.66574e-17 -0.0900558 0 
2.91694e-17 -0.0900558 0 
2.09595e-17 -0.0900558 0 
3.52449e-17 -0.0900558 0 
5.11745e-17 -0.0900558 0 
2.60926e-17 -0.0900558 0 
4.63039e-17 -0.0900558 0 
6.41135e-17 -0.0900558 0 
7.96626e-17 -0.0900558 0 
5.90887e-17 -0.0900558 0 
7.44607e-17 -0.0900558 0 
VECTORS velocity double
5.97574e-16 -1.32435 0 
4.19307e-15 -1.32435 0 
1.0622e-15 -1.32435 0 
2.89917e-15 -1.32435 0 
-3.36872e-15 -1.32435 0 
4.91507e-16 -1.32435 0 
-4.80508e-16 -1.32435 0 
7.74127e-16 -1.32435 0 
4.77137e-15 -1.32435 0 
7.39751e-15 -1.32435 0 
3.02557e-15 -1.32435 0 
4.9308e-15 -1.32435 0 
3.04048e-15 -1.32435 0 
-5.50858e-17 -1.32435 0 
4.17258e-15 -1.32435 0 
3.23069e-15 -1.32435 0 
3.62691e-16 -1.32435 0 
1.59152e-15 -1.32435 0 
-1.50096e-15 -1.32435 0 
2.70092e-16 -1.32435 0 
7.39567e-16 -1.32435 0 
7.5097e-16 -1.32435 0 
2.91504e-16 -1.32435 0 
4.22035e-16 -1.32435 0 
1.74128e-15 -1.32435 0 
3.06624e-15 -1.32435 0 
9.18486e-16 -1.32435 0 
1.80382e-15 -1.32435 0 
3.80724e-15 -1.32435 0 
4.3339e-15 -1.32435 0 
1.94445e-15 -1.32435 0 
3.25456e-15 -1.32435 0 
-3.13588e-15 -1.32435 0 
-1.03321e-15 -1.32435 0 
-4.54207e-15 -1.32435 0 
-2.3184e-15 -1.32435 0 
-1.98516e-16 -1.32435 0 
9.01044e-17 -1.32435 0 
-7.30493e-16 -1.32435 0 
-2.44822e-16 -1.32435 0 
1.89483e-16 -1.32435 0 
5.18438e-16 -1.32435 0 
-4.45731e-16 -1.32435 0 
-7.89922e-16 -1.32435 0 
1.21231e-16 -1.32435 0 
1.93021e-15 -1.32435 0 
-1.66242e-15 -1.32435 0 
3.6087e-16 -1.32435 0 
-4.3217e-15 -1.32435 0 
-2.96422e-15 -1.32435 0 
-2.47475e-15 -1.32435 0 
-2.97067e-15 -1.32435 0 
4.61191e-16 -1.32435 0 
-2.80413e-16 -1.32435 0 
3.37654e-15 -1.32435 0 
-1.66679e-17 -1.32435 0 
-1.58874e-15 -1.32435 0 
-2.89561e-15 -1.32435 0 
-3.23953e-15 -1.32435 0 
-5.79864e-15 -1.32435 0 
-1.98e-15 -1.32435 0 
1.15152e-15 -1.32435 0 
-8.3151e-16 -1.32435 0 
4.30217e-15 -1.32435 0 
SCALARS mass double 1
LOOKUP_TABLE default
0.625
0.625
0.625
0.625
0.625
0.625
0.625
0.625
0.625
0.625
0.625
0.625
0.625
0.625
0.625
0.625
0.625
0.625
0.625
0.625
0.625
0.625
0.625
0.625
0.625
0.625
0.625
0.625
0.625
0.625
0.625
0.625
0.625
0.625
0.625
0.625
0.625
0.625
0.625
0.625
0.625
0.625
0.625
0.625
0.625
0.625
0.625
0.625
0.625
0.625
0.625
0.625
0.625
0.625
0.625
0.625
0.625
0.625
0.625
0.625
0.625
0.625
0.625
0.625
SCALARS volume double 1
LOOKUP_TABLE default
0.000625
0.000625
0.000625
0.000625
0.000625
0.000625
0.000625
0.000625
0.000625
0.000625
0.000625
0.000625
0.000625
0.000625
0.000625
0.000625
0.000625
0.000625
0.000625
0.000625
0.000625
0.000625
0.000625
0.000625
0.000625
0.000625
0.000625
0.000625
0.000625
0.000625
0.000625
0.000625
0.000625
0.000625
0.000625
0.000625
0.000625
0.000625
0.000625
0.000625
0.000625
0.000625
0.000625
0.000625
0.000625
0.000625
0.000625
0.000625
0.000625
0.000625
0.000625
0.000625
0.000625
0.000625
0.000625
0.000625
0.000625
0.000625
0.000625
0.000625
0.000625
0.000625
0.000625
0.000625
VECTORS momentum double
3.73484e-16 -0.827719 0 
2.62067e-15 -0.827719 0 
6.63877e-16 -0.827719 0 
1.81198e-15 -0.827719 0 
-2.10545e-15 -0.827719 0 
3.07192e-16 -0.827719 0 
-3.00317e-16 -0.827719 0 
4.8383e-16 -0.827719 0 
2.98211e-15 -0.827719 0 
4.62345e-15 -0.827719 0 
1.89098e-15 -0.827719 0 
3.08175e-15 -0.827719 0 
1.9003e-15 -0.827719 0 
-3.44286e-17 -0.827719 0 
2.60786e-15 -0.827719 0 
2.01918e-15 -0.827719 0 
2.26682e-16 -0.827719 0 
9.94697e-16 -0.827719 0 
-9.381e-16 -0.827719 0 
1.68808e-16 -0.827719 0 
4.62229e-16 -0.827719 0 
4.69356e-16 -0.827719 0 
1.8219e-16 -0.827719 0 
2.63772e-16 -0.827719 0 
1.0883e-15 -0.827719 0 
1.9164e-15 -0.827719 0 
5.74054e-16 -0.827719 0 
1.12739e-15 -0.827719 0 
2.37952e-15 -0.827719 0 
2.70869e-15 -0.827719 0 
1.21528e-15 -0.827719 0 
2.0341e-15 -0.827719 0 
-1.95993e-15 -0.827719 0 
-6.45757e-16 -0.827719 0 
-2.83879e-15 -0.827719 0 
-1.449e-15 -0.827719 0 
-1.24072e-16 -0.827719 0 
5.63152e-17 -0.827719 0 
-4.56558e-16 -0.827719 0 
-1.53014e-16 -0.827719 0 
1.18427e-16 -0.827719 0 
3.24024e-16 -0.827719 0 
-2.78582e-16 -0.827719 0 
-4.93701e-16 -0.827719 0 
7.57693e-17 -0.827719 0 
1.20638e-15 -0.827719 0 
-1.03901e-15 -0.827719 0 
2.25543e-16 -0.827719 0 
-2.70106e-15 -0.827719 0 
-1.85264e-15 -0.827719 0 
-1.54672e-15 -0.827719 0 
-1.85667e-15 -0.827719 0 
2.88245e-16 -0.827719 0 
-1.75258e-16 -0.827719 0 
2.11034e-15 -0.827719 0 
-1.04174e-17 -0.827719 0 
-9.9296e-16 -0.827719 0 
-1.80976e-15 -0.827719 0 
-2.02471e-15 -0.827719 0 
-3.62415e-15 -0.827719 0 
-1.2375e-15 -0.827719 0 
7.197e-16 -0.827719 0 
-5.19694e-16 -0.827719 0 
2.68885e-15 -0.827719 0 
VECTORS body_force double
0 -9.81 0 
0 -9.81 0 
0 -9.81 0 
0 -9.81 0 
0 -9.81 0 
0 -9.81 0 
0 -9.81 0 
0 -9.81 0 
0 -9.81 0 
0 -9.81 0 
0 -9.81 0 
0 -9.81 0 
0 -9.81 0 
0 -9.81 0 
0 -9.81 0 
0 -9.81 0 
0 -9.81 0 
0 -9.81 0 
0 -9.81 0 
0 -9.81 0 
0 -9.81 0 
0 -9.81 0 
0 -9.81 0 
0 -9.81 0 
0 -9.81 0 
0 -9.81 0 
0 -9.81 0 
0 -9.81 0 
0 -9.81 0 
0 -9.81 0 
0 -9.81 0 
0 -9.81 0 
0 -9.81 0 
0 -9.81 0 
0 -9.81 0 
0 -9.81 0 
0 -9.81 0 
0 -9.81 0 
0 -9.81 0 
0 -9.81 0 
0 -9.81 0 
0 -9.81 0 
0 -9.81 0 
0 -9.81 0 
0 -9.81 0 
0 -9.81 0 
0 -9.81 0 
0 -9.81 0 
0 -9.81 0 
0 -9.81 0 
0 -9.81 0 
0 -9.81 0 
0 -9.81 0 
0 -9.81 0 
0 -9.81 0 
0 -9.81 0 
0 -9.81 0 
0 -9.81 0 
0 -9.81 0 
0 -9.81 0 
0 -9.81 0 
0 -9.81 0 
0 -9.81 0 
0 -9.81 0 
TENSORS cauchy_stress double
-1.50229e-10 -2.85015e-11 0
-2.85015e-11 -1.90795e-11 0
0 0 -5.07924e-11

1.14062e-10 -8.7731e-11 0
-8.7731e-11 2.56169e-10 0
0 0 1.11069e-10

-1.68177e-10 1.87427e-11 0
1.87427e-11 -6.09582e-11 0
0 0 -6.87404e-11

4.40878e-11 -2.55233e-11 0
-2.55233e-11 9.28954e-11 0
0 0 4.10949e-11

9.94988e-12 3.40892e-11 0
3.40892e-11 -1.02687e-10 0
0 0 -2.78211e-11

-1.09311e-10 8.52618e-11 0
8.52618e-11 -2.29589e-10 0
0 0 -1.0167e-10

-2.16815e-11 1.65464e-11 0
1.65464e-11 -1.76493e-10 0
0 0 -5.94525e-11

-9.81053e-11 4.44045e-11 0
4.44045e-11 -2.03442e-10 0
0 0 -9.04643e-11

6.14509e-11 -6.81739e-12 0
-6.81739e-12 2.07139e-10 0
0 0 8.0577e-11

8.94526e-11 -7.01523e-12 0
-7.01523e-12 2.29838e-10 0
0 0 9.57872e-11

7.20081e-11 5.63523e-12 0
5.63523e-12 2.31773e-10 0
0 0 9.11343e-11

7.65719e-11 -4.11794e-12 0
-4.11794e-12 1.99783e-10 0
0 0 8.29065e-11

-5.24079e-11 9.95282e-12 0
9.95282e-12 -9.94388e-11 0
0 0 -4.5554e-11

-8.46746e-11 -6.99799e-12 0
-6.99799e-12 -1.65514e-10 0
0 0 -7.50566e-11

-6.09448e-11 7.03826e-12 0
7.03826e-12 -1.19358e-10 0
0 0 -5.40909e-11

-8.7669e-11 -3.32555e-12 0
-3.32555e-12 -1.72501e-10 0
0 0 -7.8051e-11

-1.25267e-10 -2.99695e-11 0
-2.99695e-11 -9.49349e-11 0
0 0 -6.60606e-11

-2.33446e-11 -2.19567e-11 0
-2.19567e-11 1.10802e-11 0
0 0 -3.67931e-12

-1.17381e-10 -1.38202e-11 0
-1.38202e-11 -7.65353e-11 0
0 0 -5.8175e-11

5.79713e-12 -3.04356e-12 0
-3.04356e-12 7.90777e-11 0
0 0 2.54624e-11

-9.22652e-11 1.35809e-11 0
1.35809e-11 -2.30761e-10 0
0 0 -9.69078e-11

-9.08199e-11 2.71432e-11 0
2.71432e-11 -2.23092e-10 0
0 0 -9.41735e-11

-7.75443e-11 1.85807e-11 0
1.85807e-11 -1.96412e-10 0
0 0 -8.21868e-11

-1.00255e-10 1.50801e-11 0
1.50801e-11 -2.45106e-10 0
0 0 -1.03608e-10

7.81458e-11 -1.85782e-12 0
-1.85782e-12 2.09226e-10 0
0 0 8.62115e-11

7.72524e-11 -8.65454e-12 0
-8.65454e-12 2.14044e-10 0
0 0 8.73889e-11

7.74224e-11 -1.88178e-12 0
-1.88178e-12 2.07538e-10 0
0 0 8.54881e-11

8.01539e-11 -4.61859e-12 0
-4.61859e-12 2.20814e-10 0
0 0 9.02905e-11

-6.90265e-11 -1.12237e-12 0
-1.12237e-12 -1.1903e-10 0
0 0 -5.64171e-11

-9.19061e-11 -7.75493e-12 0
-7.75493e-12 -1.70633e-10 0
0 0 -7.87616e-11

-6.65285e-11 -2.42259e-12 0
-2.42259e-12 -1.13202e-10 0
0 0 -5.39191e-11

-1.01072e-10 4.68645e-13 0
4.68645e-13 -1.92019e-10 0
0 0 -8.79273e-11

-1.18965e-10 1.39136e-11 0
1.39136e-11 -5.21228e-11 0
0 0 -5.13264e-11

1.49693e-11 2.615e-12 0
2.615e-12 1.02261e-10 0
0 0 3.5169e-11

-1.26815e-10 3.87623e-11 0
3.87623e-11 -7.04383e-11 0
0 0 -5.91759e-11

-1.411e-11 2.04975e-11 0
2.04975e-11 3.44089e-11 0
0 0 6.08967e-12

-7.24752e-11 -1.51805e-11 0
-1.51805e-11 -1.84176e-10 0
0 0 -7.69955e-11

-1.15513e-10 -2.35736e-11 0
-2.35736e-11 -2.68875e-10 0
0 0 -1.15316e-10

-8.77623e-11 -1.36274e-11 0
-1.36274e-11 -2.19846e-10 0
0 0 -9.22825e-11

-9.01916e-11 -3.59872e-11 0
-3.59872e-11 -2.09793e-10 0
0 0 -8.99953e-11

7.00483e-11 -1.70572e-11 0
-1.70572e-11 2.02837e-10 0
0 0 8.18657e-11

7.60392e-11 -2.17188e-12 0
-2.17188e-12 2.21534e-10 0
0 0 8.92718e-11

8.3869e-11 -1.0944e-11 0
-1.0944e-11 2.35086e-10 0
0 0 9.56864e-11

7.38871e-11 3.8524e-12 0
3.8524e-12 2.16512e-10 0
0 0 8.71197e-11

-6.67243e-11 -5.06227e-12 0
-5.06227e-12 -9.56838e-11 0
0 0 -4.87224e-11

-1.01549e-10 -2.94439e-12 0
-2.94439e-12 -1.75265e-10 0
0 0 -8.30441e-11

-7.89789e-11 -7.14656e-12 0
-7.14656e-12 -1.24278e-10 0
0 0 -6.09771e-11

-1.03694e-10 5.31738e-13 0
5.31738e-13 -1.80272e-10 0
0 0 -8.51898e-11

-1.78203e-10 -1.4202e-11 0
-1.4202e-11 -8.39477e-11 0
0 0 -7.86454e-11

4.34069e-11 2.47318e-11 0
2.47318e-11 7.03717e-11 0
0 0 3.41336e-11

-1.4173e-10 3.10449e-11 0
3.10449e-11 1.15645e-12 0
0 0 -4.21721e-11

1.22134e-10 9.01971e-11 0
9.01971e-11 2.54068e-10 0
0 0 1.12861e-10

-1.69601e-11 -1.1736e-11 0
-1.1736e-11 -1.56218e-10 0
0 0 -5.19536e-11

-1.11186e-10 -4.85168e-11 0
-4.85168e-11 -2.00993e-10 0
0 0 -9.36536e-11

7.76534e-12 -4.20026e-11 0
-4.20026e-11 -9.85258e-11 0
0 0 -2.72281e-11

-1.03178e-10 -8.30765e-11 0
-8.30765e-11 -1.82308e-10 0
0 0 -8.56456e-11

6.21634e-11 -6.95745e-12 0
-6.95745e-12 2.38917e-10 0
0 0 9.03242e-11

8.1037e-11 1.55827e-12 0
1.55827e-12 2.39042e-10 0
0 0 9.60236e-11

5.50605e-11 4.39573e-12 0
4.39573e-12 2.22344e-10 0
0 0 8.32214e-11

8.39994e-11 5.4982e-12 0
5.4982e-12 2.45954e-10 0
0 0 9.8986e-11

-6.76374e-11 -1.10176e-11 0
-1.10176e-11 -1.06284e-10 0
0 0 -5.21766e-11

-9.59334e-11 2.64951e-12 0
2.64951e-12 -1.70492e-10 0
0 0 -7.99276e-11

-6.06026e-11 -6.68691e-12 0
-6.68691e-12 -8.98698e-11 0
0 0 -4.51417e-11

-9.47964e-11 7.76014e-12 0
7.76014e-12 -1.67839e-10 0
0 0 -7.87907e-11

TENSORS velocity_gradient double
4.05436e-14 1.02119e-13 0
1.24345e-14 -1.36779e-13 0
0 0 0

-1.79386e-14 4.67212e-14 0
2.17604e-14 -6.66134e-15 0
0 0 0

4.05436e-14 3.46283e-14 0
3.55271e-15 -1.38556e-13 0
0 0 0

-1.79386e-14 1.52657e-14 0
2.22045e-14 -1.33227e-14 0
0 0 0

-9.10376e-15 -3.58643e-14 0
-1.95399e-14 2.85993e-13 0
0 0 0

7.59772e-15 1.84884e-14 0
-7.50511e-14 -1.17684e-13 0
0 0 0

-9.10376e-15 -1.35993e-14 0
-2.13163e-14 2.06057e-13 0
0 0 0

7.59772e-15 1.84993e-14 0
-7.10543e-14 -1.35003e-13 0
0 0 0

-1.7273e-14 9.95153e-14 0
-4.26326e-14 -2.84217e-14 0
0 0 0

-4.08794e-14 2.40143e-14 0
-4.4631e-14 1.82743e-13 0
0 0 0

-1.7273e-14 6.63507e-14 0
-5.68434e-14 0 0
0 0 0

-4.08794e-14 2.90825e-14 0
-4.88498e-14 1.92735e-13 0
0 0 0

6.93573e-15 -8.85396e-14 0
-3.37508e-14 -7.63833e-14 0
0 0 0

6.40456e-14 -5.61331e-14 0
-3.61933e-14 -1.35669e-13 0
0 0 0

6.93573e-15 -2.64755e-14 0
-4.61853e-14 -8.88178e-14 0
0 0 0

6.40456e-14 -1.3886e-14 0
-3.90799e-14 -1.38556e-13 0
0 0 0

-5.0297e-14 8.12715e-15 0
2.30926e-14 -1.47438e-13 0
0 0 0

-3.62637e-14 5.87111e-15 0
1.17684e-14 -3.08642e-14 0
0 0 0

-5.0297e-14 2.26161e-14 0
1.42109e-14 -1.42109e-13 0
0 0 0

-3.62637e-14 1.85375e-14 0
1.24345e-14 -1.59872e-14 0
0 0 0

-2.5635e-14 2.5079e-15 0
7.10543e-15 1.77636e-13 0
0 0 0

-1.84041e-14 1.80425e-14 0
-9.99201e-15 -1.30784e-13 0
0 0 0

-2.5635e-14 1.24573e-14 0
1.06581e-14 1.66978e-13 0
0 0 0

-1.84041e-14 1.71179e-14 0
-5.32907e-15 -1.68754e-13 0
0 0 0

-3.14866e-14 4.12008e-14 0
-3.37508e-14 -1.95399e-14 0
0 0 0

-4.6199e-14 2.78945e-14 0
-4.61853e-14 1.81188e-13 0
0 0 0

-3.14866e-14 2.40656e-14 0
-4.9738e-14 -2.13163e-14 0
0 0 0

-4.6199e-14 2.04504e-14 0
-4.88498e-14 1.78524e-13 0
0 0 0

-4.28078e-14 8.05804e-15 0
-4.9738e-14 -6.39488e-14 0
0 0 0

-3.63128e-14 9.72329e-15 0
-4.44089e-14 -1.15463e-13 0
0 0 0

-4.28078e-14 1.50609e-14 0
-4.9738e-14 -5.68434e-14 0
0 0 0

-3.63128e-14 1.46949e-14 0
-3.4639e-14 -9.14824e-14 0
0 0 0

-3.60982e-14 3.23812e-14 0
1.42109e-14 -1.42109e-13 0
0 0 0

-3.06865e-14 2.81321e-14 0
9.32587e-15 -4.88498e-15 0
0 0 0

-3.60982e-14 3.74225e-14 0
0 -1.27898e-13 0
0 0 0

-3.06865e-14 3.4655e-14 0
4.44089e-15 -3.10862e-14 0
0 0 0

-2.25071e-14 2.17978e-14 0
3.55271e-15 1.38556e-13 0
0 0 0

-1.65303e-14 1.55119e-14 0
-2.04281e-14 -1.83853e-13 0
0 0 0

-2.25071e-14 3.05294e-14 0
-3.55271e-15 1.10134e-13 0
0 0 0

-1.65303e-14 1.32246e-14 0
7.99361e-15 -1.69642e-13 0
0 0 0

-3.11375e-14 6.14112e-15 0
-1.24345e-14 -2.66454e-14 0
0 0 0

-4.74843e-14 1.21055e-14 0
1.26565e-14 1.97398e-13 0
0 0 0

-3.11375e-14 -1.25727e-14 0
7.10543e-15 -2.13163e-14 0
0 0 0

-4.74843e-14 2.85972e-15 0
2.75335e-14 1.98064e-13 0
0 0 0

-4.61441e-14 2.09968e-14 0
1.06581e-14 -6.03961e-14 0
0 0 0

-4.18015e-14 1.85624e-14 0
6.43929e-15 -9.30367e-14 0
0 0 0

-4.61441e-14 2.58657e-14 0
7.10543e-15 -7.81597e-14 0
0 0 0

-4.18015e-14 2.13258e-14 0
-8.88178e-16 -1.00364e-13 0
0 0 0

6.33769e-14 3.24669e-15 0
-2.66454e-14 -1.40332e-13 0
0 0 0

-1.06368e-15 1.91244e-14 0
-7.01661e-14 -4.17444e-14 0
0 0 0

6.33769e-14 -7.01461e-14 0
-2.84217e-14 -1.84741e-13 0
0 0 0

-1.06368e-15 -1.84597e-14 0
-6.92779e-14 -3.37508e-14 0
0 0 0

1.38894e-15 4.27942e-14 0
-1.95399e-14 1.43885e-13 0
0 0 0

1.2043e-14 9.69173e-15 0
3.01981e-14 -1.33227e-13 0
0 0 0

1.38894e-15 5.85924e-14 0
-2.84217e-14 2.13163e-13 0
0 0 0

1.2043e-14 4.91337e-15 0
3.81917e-14 -1.32339e-13 0
0 0 0

-1.57414e-14 -3.96561e-14 0
1.77636e-14 -1.06581e-14 0
0 0 0

-4.13718e-14 1.55611e-16 0
7.54952e-15 1.99396e-13 0
0 0 0

-1.57414e-14 -7.51092e-14 0
3.55271e-14 -3.55271e-14 0
0 0 0

-4.13718e-14 3.99312e-15 0
9.76996e-15 1.73195e-13 0
0 0 0

6.39528e-15 5.95053e-14 0
1.59872e-14 -5.50671e-14 0
0 0 0

6.33008e-14 4.29032e-14 0
7.99361e-15 -1.19904e-13 0
0 0 0

6.39528e-15 1.21916e-13 0
2.4869e-14 -6.03961e-14 0
0 0 0

6.33008e-14 8.32945e-14 0
1.68754e-14 -1.53655e-13 0
0 0 0

SCALARS active double 1
LOOKUP_TABLE default
1
1
1
1
1
1
1
1
1
1
1
1
1
1
1
1
1
1
1
1
1
1
1
1
1
1
1
1
1
1
1
1
1
1
1
1
1
1
1
1
1
1
1
1
1
1
1
1
1
1
1
1
1
1
1
1
1
1
1
1
1
1
1
1
SCALARS extent double 1
LOOKUP_TABLE default
0.0125
0.0125
0.0125
0.0125
0.0125
0.0125
0.0125
0.0125
0.0125
0.0125
0.0125
0.0125
0.0125
0.0125
0.0125
0.0125
0.0125
0.0125
0.0125
0.0125
0.0125
0.0125
0.0125
0.0125
0.0125
0.0125
0.0125
0.0125
0.0125
0.0125
0.0125
0.0125
0.0125
0.0125
0.0125
0.0125
0.0125
0.0125
0.0125
0.0125
0.0125
0.0125
0.0125
0.0125
0.0125
0.0125
0.0125
0.0125
0.0125
0.0125
0.0125
0.0125
0.0125
0.0125
0.0125
0.0125
0.0125
0.0125
0.0125
0.0125
0.0125
0.0125
0.0125
0.0125
SCALARS pressure double 1
LOOKUP_TABLE default
7.33668e-11
-1.60434e-10
9.92917e-11
-5.93594e-11
4.01861e-11
1.46857e-10
8.58758e-11
1.30671e-10
-1.16389e-10
-1.38359e-10
-1.31638e-10
-1.19754e-10
6.58003e-11
1.08415e-10
7.81313e-11
1.1274e-10
9.54208e-11
5.31456e-12
8.40306e-11
-3.67791e-11
1.39978e-10
1.36028e-10
1.18714e-10
1.49656e-10
-1.24528e-10
-1.26228e-10
-1.23483e-10
-1.3042e-10
8.14914e-11
1.13767e-10
7.78831e-11
1.27006e-10
7.41382e-11
-5.07996e-11
8.54764e-11
-8.79619e-12
1.11216e-10
1.66568e-10
1.33297e-10
1.29993e-10
-1.1825e-10
-1.28948e-10
-1.38214e-10
-1.2584e-10
7.03769e-11
1.19953e-10
8.8078e-11
1.23052e-10
1.13599e-10
-4.93041e-11
6.09153e-11
-1.63021e-10
7.5044e-11
1.35277e-10
3.93295e-11
1.2371e-10
-1.30468e-10
-1.38701e-10
-1.20209e-10
-1.4298e-10
7.53661e-11
1.15451e-10
6.52047e-11
1.13809e-10
SCALARS density double 1
LOOKUP_TABLE default
1000
1000
1000
1000
1000
1000
1000
1000
1000
1000
1000
1000
1000
1000
1000
1000
1000
1000
1000
1000
1000
1000
1000
1000
1000
1000
1000
1000
1000
1000
1000
1000
1000
1000
1000
1000
1000
1000
1000
1000
1000
1000
1000
1000
1000
1000
1000
1000
1000
1000
1000
1000
1000
1000
1000
1000
1000
1000
1000
1000
1000
1000
1000
1000
