# vtk DataFile Version 3.0
Frame: 31, Time: 0.517
ASCII
DATASET UNSTRUCTURED_GRID
POINTS 64 double
0.42152 0.082622 0 
0.402386 0.0993798 0 
0.435343 0.102648 0 
0.415702 0.120797 0 
0.38122 0.114772 0 
0.359235 0.129459 0 
0.396352 0.134585 0 
0.375714 0.147916 0 
0.339751 0.144736 0 
0.317762 0.15868 0 
0.355845 0.164744 0 
0.333978 0.177915 0 
0.298049 0.176781 0 
0.278746 0.191873 0 
0.313676 0.195168 0 
0.294129 0.209985 0 
0.448838 0.123574 0 
0.429375 0.140731 0 
0.465923 0.140364 0 
0.445376 0.157029 0 
0.41005 0.154504 0 
0.389915 0.168322 0 
0.426169 0.171724 0 
0.406259 0.185978 0 
0.369349 0.184346 0 
0.347598 0.196098 0 
0.385529 0.202318 0 
0.363845 0.215859 0 
0.328972 0.21311 0 
0.309482 0.232153 0 
0.34483 0.233 0 
0.327009 0.250581 0 
0.482526 0.158604 0 
0.461757 0.173667 0 
0.497187 0.177614 0 
0.477105 0.193376 0 
0.442139 0.188989 0 
0.421413 0.205419 0 
0.458368 0.208465 0 
0.438071 0.225084 0 
0.401104 0.221595 0 
0.380508 0.234857 0 
0.416957 0.240698 0 
0.399321 0.254435 0 
0.361397 0.251835 0 
0.3441 0.26903 0 
0.380781 0.271467 0 
0.360177 0.288625 0 
0.513831 0.194269 0 
0.492957 0.210624 0 
0.527791 0.214819 0 
0.509326 0.230945 0 
0.475494 0.227478 0 
0.454117 0.24236 0 
0.490681 0.24825 0 
0.469184 0.262997 0 
0.433992 0.258233 0 
0.416995 0.274616 0 
0.450432 0.279359 0 
0.43183 0.295857 0 
0.397411 0.289879 0 
0.375444 0.306027 0 
0.411186 0.309515 0 
0.391927 0.325368 0 
CELLS 64 128
1 0
1 1
1 2
1 3
1 4
1 5
1 6
1 7
1 8
1 9
1 10
1 11
1 12
1 13
1 14
1 15
1 16
1 17
1 18
1 19
1 20
1 21
1 22
1 23
1 24
1 25
1 26
1 27
1 28
1 29
1 30
1 31
1 32
1 33
1 34
1 35
1 36
1 37
1 38
1 39
1 40
1 41
1 42
1 43
1 44
1 45
1 46
1 47
1 48
1 49
1 50
1 51
1 52
1 53
1 54
1 55
1 56
1 57
1 58
1 59
1 60
1 61
1 62
1 63
CELL_TYPES 64
1
1
1
1
1
1
1
1
1
1
1
1
1
1
1
1
1
1
1
1
1
1
1
1
1
1
1
1
1
1
1
1
1
1
1
1
1
1
1
1
1
1
1
1
1
1
1
1
1
1
1
1
1
1
1
1
1
1
1
1
1
1
1
1
POINT_DATA 64
VECTORS displacement double
0.00901974 -0.329878 0 
-0.010114 -0.33812 0 
-0.00215685 -0.309852 0 
-0.021798 -0.316703 0 
-0.0312799 -0.347728 0 
-0.0532651 -0.358041 0 
-0.0411479 -0.327915 0 
-0.0617859 -0.339584 0 
-0.0727486 -0.367764 0 
-0.0947382 -0.37882 0 
-0.0816548 -0.347756 0 
-0.103522 -0.359585 0 
-0.114451 -0.385719 0 
-0.133754 -0.395627 0 
-0.123824 -0.367332 0 
-0.143371 -0.377515 0 
-0.0136622 -0.288926 0 
-0.033125 -0.296769 0 
-0.0215767 -0.272136 0 
-0.0421238 -0.280471 0 
-0.0524505 -0.307996 0 
-0.0725848 -0.319178 0 
-0.0613309 -0.290776 0 
-0.0812407 -0.301522 0 
-0.0931512 -0.328154 0 
-0.114902 -0.341402 0 
-0.101971 -0.310182 0 
-0.123655 -0.321641 0 
-0.133528 -0.34939 0 
-0.153018 -0.355347 0 
-0.14267 -0.3295 0 
-0.160491 -0.336919 0 
-0.0299741 -0.253896 0 
-0.0507426 -0.263833 0 
-0.0403129 -0.234886 0 
-0.0603951 -0.244124 0 
-0.070361 -0.273511 0 
-0.0910874 -0.282081 0 
-0.0791325 -0.254035 0 
-0.0994293 -0.262416 0 
-0.111396 -0.290905 0 
-0.131992 -0.302643 0 
-0.120543 -0.271802 0 
-0.138179 -0.283065 0 
-0.151103 -0.310665 0 
-0.1684 -0.31847 0 
-0.156719 -0.291033 0 
-0.177323 -0.298875 0 
-0.0486692 -0.218231 0 
-0.0695429 -0.226876 0 
-0.0597092 -0.197681 0 
-0.0781741 -0.206555 0 
-0.0870055 -0.235022 0 
-0.108383 -0.24514 0 
-0.0968189 -0.21425 0 
-0.118316 -0.224503 0 
-0.128508 -0.254267 0 
-0.145505 -0.262884 0 
-0.137068 -0.233141 0 
-0.15567 -0.241643 0 
-0.165089 -0.272621 0 
-0.187056 -0.281473 0 
-0.176314 -0.252985 0 
-0.195573 -0.262132 0 
VECTORS velocity double
0.514345 0.0486416 0 
0.282983 -0.860522 0 
0.679674 0.34225 0 
-0.475175 0.275032 0 
1.29335 -0.708656 0 
0.168617 -0.496793 0 
0.300323 -0.175492 0 
-0.224496 -0.248818 0 
0.575565 -1.00299 0 
-0.183298 -0.936187 0 
-0.533964 -0.381596 0 
-0.587519 -0.464573 0 
-0.171451 -0.950613 0 
-0.345458 -1.33589 0 
-0.286643 -0.587373 0 
-1.12496 -1.12501 0 
0.284835 0.151672 0 
-0.313039 0.27336 0 
-0.0477833 -0.164576 0 
-0.238481 0.0503426 0 
0.129627 -0.140566 0 
-0.44214 -0.366588 0 
-0.150243 -0.101897 0 
-0.733876 -0.305922 0 
-0.762161 -0.63216 0 
-0.703729 -0.990319 0 
-0.386488 -0.588471 0 
-0.0897037 -0.876365 0 
-0.210776 -0.544858 0 
-0.7659 -1.05041 0 
-0.0861973 0.00496152 0 
-0.735744 -1.29897 0 
-0.160498 0.358614 0 
-0.0842738 0.125769 0 
-0.627552 0.0847053 0 
-0.243048 0.357829 0 
-0.153377 0.146443 0 
-0.35955 0.208561 0 
-0.68263 -0.209867 0 
-0.730867 -0.124726 0 
0.186695 -0.0973681 0 
-0.287401 -0.64629 0 
-0.487282 -0.0714422 0 
-1.19378 -0.618465 0 
-1.25374 -0.745127 0 
-0.995239 -1.59989 0 
-1.32619 -0.255643 0 
-0.587065 -0.19046 0 
-0.0450606 0.400149 0 
-0.132194 0.230367 0 
-0.468596 0.255788 0 
-0.661996 0.0407517 0 
-0.237777 -0.272836 0 
-0.180232 -0.0509193 0 
-0.77113 0.628027 0 
-0.896473 0.372069 0 
-0.592048 -0.315414 0 
-1.07024 -0.836863 0 
-1.19642 -0.330389 0 
-1.00879 0.0992036 0 
-0.375143 -0.701805 0 
-1.11464 -1.16866 0 
-0.802535 -0.172052 0 
-1.40503 -0.644436 0 
SCALARS mass double 1
LOOKUP_TABLE default
0.625
0.625
0.625
0.625
0.625
0.625
0.625
0.625
0.625
0.625
0.625
0.625
0.625
0.625
0.625
0.625
0.625
0.625
0.625
0.625
0.625
0.625
0.625
0.625
0.625
0.625
0.625
0.625
0.625
0.625
0.625
0.625
0.625
0.625
0.625
0.625
0.625
0.625
0.625
0.625
0.625
0.625
0.625
0.625
0.625
0.625
0.625
0.625
0.625
0.625
0.625
0.625
0.625
0.625
0.625
0.625
0.625
0.625
0.625
0.625
0.625
0.625
0.625
0.625
SCALARS volume double 1
LOOKUP_TABLE default
0.000602172
0.000628886
0.000639565
0.000641271
0.000642486
0.000644814
0.000589083
0.000629614
0.00061834
0.000665788
0.000619942
0.000598696
0.000631835
0.000619412
0.000627215
0.000618016
0.00062182
0.000611828
0.000639246
0.000621718
0.000562028
0.000671648
0.000559616
0.000609122
0.000661864
0.000578552
0.000601471
0.000617957
0.000645122
0.000621829
0.000620974
0.000640277
0.000641942
0.000616627
0.000602903
0.000605776
0.000673928
0.000693147
0.000636538
0.000599074
0.000639825
0.000650783
0.00058
0.000634544
0.000639815
0.000595978
0.000680559
0.000602421
0.000641759
0.000658825
0.000626855
0.000617404
0.000638845
0.000608078
0.000622456
0.000611034
0.000626963
0.000623902
0.000630644
0.000602314
0.000616912
0.00059098
0.000619768
0.000646336
VECTORS momentum double
0.321465 0.030401 0 
0.176864 -0.537826 0 
0.424796 0.213906 0 
-0.296984 0.171895 0 
0.808346 -0.44291 0 
0.105386 -0.310496 0 
0.187702 -0.109683 0 
-0.14031 -0.155511 0 
0.359728 -0.626869 0 
-0.114561 -0.585117 0 
-0.333728 -0.238497 0 
-0.3672 -0.290358 0 
-0.107157 -0.594133 0 
-0.215911 -0.834928 0 
-0.179152 -0.367108 0 
-0.703101 -0.703133 0 
0.178022 0.0947953 0 
-0.195649 0.17085 0 
-0.0298645 -0.10286 0 
-0.149051 0.0314641 0 
0.0810167 -0.0878539 0 
-0.276338 -0.229118 0 
-0.093902 -0.0636855 0 
-0.458673 -0.191201 0 
-0.476351 -0.3951 0 
-0.439831 -0.61895 0 
-0.241555 -0.367794 0 
-0.0560648 -0.547728 0 
-0.131735 -0.340536 0 
-0.478688 -0.656507 0 
-0.0538733 0.00310095 0 
-0.45984 -0.811855 0 
-0.100311 0.224133 0 
-0.0526711 0.0786054 0 
-0.39222 0.0529408 0 
-0.151905 0.223643 0 
-0.0958608 0.0915272 0 
-0.224719 0.130351 0 
-0.426644 -0.131167 0 
-0.456792 -0.0779538 0 
0.116684 -0.0608551 0 
-0.179625 -0.403931 0 
-0.304551 -0.0446513 0 
-0.74611 -0.38654 0 
-0.783588 -0.465704 0 
-0.622024 -0.999929 0 
-0.828871 -0.159777 0 
-0.366916 -0.119038 0 
-0.0281629 0.250093 0 
-0.0826214 0.143979 0 
-0.292872 0.159867 0 
-0.413747 0.0254698 0 
-0.148611 -0.170522 0 
-0.112645 -0.0318246 0 
-0.481956 0.392517 0 
-0.560296 0.232543 0 
-0.37003 -0.197134 0 
-0.668899 -0.523039 0 
-0.747765 -0.206493 0 
-0.630496 0.0620023 0 
-0.234465 -0.438628 0 
-0.696652 -0.730414 0 
-0.501584 -0.107533 0 
-0.878142 -0.402772 0 
VECTORS body_force double
0 -9.81 0 
0 -9.81 0 
0 -9.81 0 
0 -9.81 0 
0 -9.81 0 
0 -9.81 0 
0 -9.81 0 
0 -9.81 0 
0 -9.81 0 
0 -9.81 0 
0 -9.81 0 
0 -9.81 0 
0 -9.81 0 
0 -9.81 0 
0 -9.81 0 
0 -9.81 0 
0 -9.81 0 
0 -9.81 0 
0 -9.81 0 
0 -9.81 0 
0 -9.81 0 
0 -9.81 0 
0 -9.81 0 
0 -9.81 0 
0 -9.81 0 
0 -9.81 0 
0 -9.81 0 
0 -9.81 0 
0 -9.81 0 
0 -9.81 0 
0 -9.81 0 
0 -9.81 0 
0 -9.81 0 
0 -9.81 0 
0 -9.81 0 
0 -9.81 0 
0 -9.81 0 
0 -9.81 0 
0 -9.81 0 
0 -9.81 0 
0 -9.81 0 
0 -9.81 0 
0 -9.81 0 
0 -9.81 0 
0 -9.81 0 
0 -9.81 0 
0 -9.81 0 
0 -9.81 0 
0 -9.81 0 
0 -9.81 0 
0 -9.81 0 
0 -9.81 0 
0 -9.81 0 
0 -9.81 0 
0 -9.81 0 
0 -9.81 0 
0 -9.81 0 
0 -9.81 0 
0 -9.81 0 
0 -9.81 0 
0 -9.81 0 
0 -9.81 0 
0 -9.81 0 
0 -9.81 0 
TENSORS cauchy_stress double
-1544.72 1382.25 0
1382.25 -5610.66 0
0 0 -2146.62

-11351 -4099.29 0
-4099.29 12542.9 0
0 0 357.566

3871.13 488.868 0
488.868 558.871 0
0 0 1329

2197.8 -668.273 0
-668.273 2744.63 0
0 0 1482.73

4753.28 -390.076 0
-390.076 553.008 0
0 0 1591.89

3731.24 -4216.49 0
-4216.49 2270.76 0
0 0 1800.6

2037.83 6006.37 0
6006.37 -13419.4 0
0 0 -3414.48

-3967.92 -421.949 0
-421.949 5382.27 0
0 0 424.304

30.9396 2395.62 0
2395.62 -2091.17 0
0 0 -618.07

9987.39 -728 0
-728 2170.25 0
0 0 3647.29

-1753.91 -4048.45 0
-4048.45 191.407 0
0 0 -468.751

-4619.18 -1755.25 0
-1755.25 -3649.63 0
0 0 -2480.64

4996.44 -1016.48 0
-1016.48 -2904.76 0
0 0 627.503

-370.696 -749.415 0
-749.415 -1356.55 0
0 0 -518.172

-1376.45 -2917.23 0
-2917.23 2056.76 0
0 0 204.095

-179.45 1215.82 0
1215.82 -1981.51 0
0 0 -648.287

-1296.56 3671.3 0
3671.3 315.739 0
0 0 -294.246

-4901.72 -4858.85 0
-4858.85 805.424 0
0 0 -1228.89

2074.74 -437.936 0
-437.936 2259.5 0
0 0 1300.27

-2081.94 -6190.13 0
-6190.13 1069.46 0
0 0 -303.744

-4563.42 2832.41 0
2832.41 -15859.6 0
0 0 -6126.91

206.08 -498.498 0
-498.498 13636.8 0
0 0 4152.87

-1976.57 1169.21 0
1169.21 -19273.5 0
0 0 -6375.02

-3526.98 -4360.45 0
-4360.45 -1421.69 0
0 0 -1484.6

1342.89 892.677 0
892.677 9678.09 0
0 0 3306.29

-3206.65 5440.25 0
5440.25 -11644 0
0 0 -4455.19

1537.45 -855.499 0
-855.499 -8917.09 0
0 0 -2213.89

5333.39 -1172.2 0
-1172.2 -7512.91 0
0 0 -653.858

2440.21 -4181.39 0
-4181.39 3653.52 0
0 0 1828.12

1978.68 691.588 0
691.588 -2956.96 0
0 0 -293.484

-1418.31 -126.759 0
-126.759 175.633 0
0 0 -372.803

3797.16 988.419 0
988.419 847.028 0
0 0 1393.26

-717.315 2903.68 0
2903.68 5860.97 0
0 0 1543.1

-3357.96 -1945.68 0
-1945.68 764.189 0
0 0 -778.132

-5076.22 -1172.04 0
-1172.04 -1845.87 0
0 0 -2076.63

-4786.39 -691.844 0
-691.844 -1221.69 0
0 0 -1802.42

8516.21 -1782.23 0
-1782.23 5978.39 0
0 0 4348.38

3369.16 -1433.19 0
-1433.19 16533 0
0 0 5970.63

4521.77 -2094.02 0
-2094.02 -1003.89 0
0 0 1055.36

4068.57 -3378.88 0
-3378.88 -12215.9 0
0 0 -2444.21

-520.998 -3659.5 0
-3659.5 5029.18 0
0 0 1352.45

-3535.96 -1154.89 0
-1154.89 11309.9 0
0 0 2332.19

4238.14 2574.56 0
2574.56 -18608.1 0
0 0 -4310.98

8507.6 5368.8 0
5368.8 -5593.19 0
0 0 874.325

-3438.58 -139.875 0
-139.875 7944 0
0 0 1351.62

-2555.91 3027.01 0
3027.01 -6587.91 0
0 0 -2743.15

15614.2 -1343.18 0
-1343.18 763.227 0
0 0 4913.23

-3487.22 -2169.19 0
-2169.19 -3588.76 0
0 0 -2122.79

5421.42 114.234 0
114.234 -332.631 0
0 0 1526.64

6202.32 -1649.52 0
-1649.52 3933.38 0
0 0 3040.71

241.85 -305.973 0
-305.973 328.186 0
0 0 171.011

-2601.17 -947.222 0
-947.222 249.578 0
0 0 -705.478

5757.89 -851.52 0
-851.52 -1544.46 0
0 0 1264.03

-3515.14 953.966 0
953.966 -1763.35 0
0 0 -1583.55

2124.14 -3791.59 0
-3791.59 -2908.36 0
0 0 -235.264

-3125.21 1780.65 0
1780.65 -1220.72 0
0 0 -1303.78

-1981.32 -102.325 0
-102.325 2584.36 0
0 0 180.913

-9109.22 2222.03 0
2222.03 8771.04 0
0 0 -101.453

3242.55 -1192.86 0
-1192.86 -1513.58 0
0 0 518.69

-1795.16 -2891.34 0
-2891.34 -5315 0
0 0 -2133.05

-2727.91 -4510.59 0
-4510.59 222.937 0
0 0 -751.492

-8780.71 -4541.19 0
-4541.19 -1982.71 0
0 0 -3229.03

2507.13 2720.53 0
2720.53 -4123.69 0
0 0 -484.967

-955.659 2321.64 0
2321.64 7411.14 0
0 0 1936.64

TENSORS velocity_gradient double
2.33942 -2.49218 0
5.12234 -1.76537 0
0 0 0

-0.224091 -3.53029 0
7.82502 -3.04934 0
0 0 0

0.208405 -8.14146 0
9.61158 0.212859 0
0 0 0

-0.0189099 -9.70081 0
8.4662 1.2376 0
0 0 0

-3.92821 -11.6019 0
6.58547 1.87199 0
0 0 0

-2.46825 -13.7561 0
7.35644 0.734406 0
0 0 0

-1.58222 -10.2106 0
7.4855 2.47142 0
0 0 0

-0.782114 -9.71782 0
8.11209 0.470052 0
0 0 0

-0.323511 -15.115 0
6.28618 0.706724 0
0 0 0

0.773479 -7.4838 0
5.91474 -0.499845 0
0 0 0

0.231077 -6.48629 0
7.83948 -0.828478 0
0 0 0

1.19852 -7.12112 0
5.84406 -0.560157 0
0 0 0

-0.251738 -7.73301 0
7.25781 -0.0830976 0
0 0 0

-1.47308 -7.36469 0
6.69954 1.46774 0
0 0 0

1.54396 -6.90716 0
5.75505 -0.801615 0
0 0 0

1.37128 -5.31591 0
3.70107 -0.5621 0
0 0 0

-1.82993 -9.39529 0
4.0482 -1.61019 0
0 0 0

0.00960974 -9.68086 0
6.3919 -0.21342 0
0 0 0

-2.8167 -7.96695 0
0.205365 -0.0227935 0
0 0 0

-0.221634 -4.63322 0
5.03174 -1.54386 0
0 0 0

-0.00855904 -5.15333 0
5.59929 -1.65428 0
0 0 0

0.375438 -4.89034 0
7.75825 -1.99337 0
0 0 0

-0.098426 -4.57392 0
5.7887 -1.89109 0
0 0 0

-0.178553 -4.46349 0
6.02924 -2.22258 0
0 0 0

1.13548 -5.85021 0
7.20289 -1.29198 0
0 0 0

1.54024 -6.21654 0
6.12738 -1.23654 0
0 0 0

1.47321 -6.26496 0
6.80957 -2.40425 0
0 0 0

0.780029 -5.32809 0
6.92545 -2.94042 0
0 0 0

1.48518 -4.121 0
5.4084 -2.62571 0
0 0 0

1.22614 -3.85929 0
4.91597 -2.12819 0
0 0 0

1.00847 -4.37886 0
5.20377 -3.00056 0
0 0 0

1.35526 -6.49032 0
4.58193 -1.37468 0
0 0 0

-1.38891 -3.15305 0
2.0379 0.0619375 0
0 0 0

-0.671931 -4.13633 0
2.75787 -0.925447 0
0 0 0

-0.691768 -2.60084 0
2.57973 0.654461 0
0 0 0

0.260852 -3.40486 0
3.69454 -0.19092 0
0 0 0

-0.194125 -4.66323 0
6.07598 -1.623 0
0 0 0

0.0453758 -6.43746 0
6.28165 -2.29551 0
0 0 0

0.493932 -5.20901 0
4.45698 -1.7241 0
0 0 0

1.01603 -5.6955 0
6.37666 -2.23563 0
0 0 0

0.692846 -7.29235 0
6.60075 -2.43074 0
0 0 0

-0.448077 -6.41596 0
7.20452 -2.69322 0
0 0 0

1.81232 -6.75413 0
6.45 -2.33314 0
0 0 0

0.400043 -4.36173 0
6.85967 -1.70747 0
0 0 0

-1.05954 -5.40481 0
7.28096 -1.38448 0
0 0 0

2.38774 -6.54443 0
4.88484 -0.477197 0
0 0 0

-0.310125 -4.53882 0
6.8594 -1.20866 0
0 0 0

0.542502 -5.54924 0
6.41937 -0.687183 0
0 0 0

-1.67005 -2.80546 0
1.53393 0.702154 0
0 0 0

0.473289 -5.56506 0
4.56187 0.0850666 0
0 0 0

-0.105339 -2.20246 0
0.652406 -1.15715 0
0 0 0

1.8582 -4.44034 0
-0.257677 -0.119917 0
0 0 0

0.29881 -5.3863 0
5.44842 -0.823247 0
0 0 0

0.361063 -5.21442 0
6.26226 -1.89994 0
0 0 0

0.108043 -6.06048 0
6.65531 0.88001 0
0 0 0

0.0656655 -7.03836 0
8.05876 0.233513 0
0 0 0

1.69152 -5.99487 0
6.44464 -1.87084 0
0 0 0

0.56604 -4.84434 0
6.35226 -1.7764 0
0 0 0

0.1422 -6.86773 0
8.45915 -1.52939 0
0 0 0

-0.705747 -5.5106 0
6.5239 -0.603685 0
0 0 0

0.201823 -3.98227 0
6.34726 -1.58834 0
0 0 0

1.00303 -6.24424 0
5.73091 -1.57872 0
0 0 0

-0.397375 -5.56037 0
8.5661 -0.174831 0
0 0 0

0.820483 -6.40119 0
4.52501 -2.61553 0
0 0 0

SCALARS active double 1
LOOKUP_TABLE default
1
1
1
1
1
1
1
1
1
1
1
1
1
1
1
1
1
1
1
1
1
1
1
1
1
1
1
1
1
1
1
1
1
1
1
1
1
1
1
1
1
1
1
1
1
1
1
1
1
1
1
1
1
1
1
1
1
1
1
1
1
1
1
1
SCALARS extent double 1
LOOKUP_TABLE default
0.0125
0.0125
0.0125
0.0125
0.0125
0.0125
0.0125
0.0125
0.0125
0.0125
0.0125
0.0125
0.0125
0.0125
0.0125
0.0125
0.0125
0.0125
0.0125
0.0125
0.0125
0.0125
0.0125
0.0125
0.0125
0.0125
0.0125
0.0125
0.0125
0.0125
0.0125
0.0125
0.0125
0.0125
0.0125
0.0125
0.0125
0.0125
0.0125
0.0125
0.0125
0.0125
0.0125
0.0125
0.0125
0.0125
0.0125
0.0125
0.0125
0.0125
0.0125
0.0125
0.0125
0.0125
0.0125
0.0125
0.0125
0.0125
0.0125
0.0125
0.0125
0.0125
0.0125
0.0125
SCALARS pressure double 1
LOOKUP_TABLE default
3100.67
-516.485
-1919.67
-2141.72
-2299.39
-2600.87
4932.03
-612.884
892.768
-5268.31
677.084
3583.15
-906.393
748.471
-294.804
936.414
425.022
1775.06
-1878.17
438.742
8849.99
-5998.59
9208.37
2144.42
-4775.76
6435.28
3197.84
944.461
-2640.61
423.922
538.493
-2012.48
-2228.92
1123.97
2999.57
2603.5
-6280.99
-8624.25
-1524.42
3530.52
-1953.54
-3368.72
6226.97
-1262.91
-1952.35
3962.32
-7096.89
3066.25
-2205.14
-4392.14
-247.016
1019.02
-1825.82
2287.35
339.826
1883.24
-261.319
146.543
-749.219
3081.07
1085.49
4664.15
700.507
-2797.38
SCALARS density double 1
LOOKUP_TABLE default
1037.91
993.821
977.227
974.627
972.784
969.272
1060.97
992.672
1010.77
938.737
1008.16
1043.94
989.182
1009.02
996.469
1011.3
1005.11
1021.53
977.714
1005.28
1112.04
930.547
1116.84
1026.07
944.302
1080.28
1039.12
1011.4
968.809
1005.1
1006.48
976.139
973.608
1013.58
1036.65
1031.74
927.398
901.684
981.873
1043.28
976.83
960.381
1077.59
984.959
976.844
1048.7
918.363
1037.48
973.885
948.659
997.04
1012.3
978.328
1027.83
1004.09
1022.86
996.869
1001.76
991.05
1037.66
1013.11
1057.57
1008.44
966.989
