# vtk DataFile Version 3.0
Frame: 4, Time: 0.067
ASCII
DATASET UNSTRUCTURED_GRID
POINTS 64 double
0.5125 0.589486 0 
0.5125 0.614486 0 
0.5375 0.589486 0 
0.5375 0.614486 0 
0.5125 0.639486 0 
0.5125 0.664486 0 
0.5375 0.639486 0 
0.5375 0.664486 0 
0.5125 0.689486 0 
0.5125 0.714486 0 
0.5375 0.689486 0 
0.5375 0.714486 0 
0.5125 0.739486 0 
0.5125 0.764486 0 
0.5375 0.739486 0 
0.5375 0.764486 0 
0.5625 0.589486 0 
0.5625 0.614486 0 
0.5875 0.589486 0 
0.5875 0.614486 0 
0.5625 0.639486 0 
0.5625 0.664486 0 
0.5875 0.639486 0 
0.5875 0.664486 0 
0.5625 0.689486 0 
0.5625 0.714486 0 
0.5875 0.689486 0 
0.5875 0.714486 0 
0.5625 0.739486 0 
0.5625 0.764486 0 
0.5875 0.739486 0 
0.5875 0.764486 0 
0.6125 0.589486 0 
0.6125 0.614486 0 
0.6375 0.589486 0 
0.6375 0.614486 0 
0.6125 0.639486 0 
0.6125 0.664486 0 
0.6375 0.639486 0 
0.6375 0.664486 0 
0.6125 0.689486 0 
0.6125 0.714486 0 
0.6375 0.689486 0 
0.6375 0.714486 0 
0.6125 0.739486 0 
0.6125 0.764486 0 
0.6375 0.739486 0 
0.6375 0.764486 0 
0.6625 0.589486 0 
0.6625 0.614486 0 
0.6875 0.589486 0 
0.6875 0.614486 0 
0.6625 0.639486 0 
0.6625 0.664486 0 
0.6875 0.639486 0 
0.6875 0.664486 0 
0.6625 0.689486 0 
0.6625 0.714486 0 
0.6875 0.689486 0 
0.6875 0.714486 0 
0.6625 0.739486 0 
0.6625 0.764486 0 
0.6875 0.739486 0 
0.6875 0.764486 0 
CELLS 64 128
1 0
1 1
1 2
1 3
1 4
1 5
1 6
1 7
1 8
1 9
1 10
1 11
1 12
1 13
1 14
1 15
1 16
1 17
1 18
1 19
1 20
1 21
1 22
1 23
1 24
1 25
1 26
1 27
1 28
1 29
1 30
1 31
1 32
1 33
1 34
1 35
1 36
1 37
1 38
1 39
1 40
1 41
1 42
1 43
1 44
1 45
1 46
1 47
1 48
1 49
1 50
1 51
1 52
1 53
1 54
1 55
1 56
1 57
1 58
1 59
1 60
1 61
1 62
1 63
CELL_TYPES 64
1
1
1
1
1
1
1
1
1
1
1
1
1
1
1
1
1
1
1
1
1
1
1
1
1
1
1
1
1
1
1
1
1
1
1
1
1
1
1
1
1
1
1
1
1
1
1
1
1
1
1
1
1
1
1
1
1
1
1
1
1
1
1
1
POINT_DATA 64
VECTORS displacement double
-3.28615e-17 -0.0230143 0 
-8.96942e-18 -0.0230143 0 
-1.74901e-17 -0.0230143 0 
-3.23183e-18 -0.0230143 0 
1.78265e-17 -0.0230143 0 
4.64812e-18 -0.0230143 0 
1.16065e-17 -0.0230143 0 
5.09688e-18 -0.0230143 0 
-1.59592e-17 -0.0230143 0 
-4.81799e-18 -0.0230143 0 
-5.86807e-18 -0.0230143 0 
-1.4315e-19 -0.0230143 0 
1.14468e-17 -0.0230143 0 
6.11552e-18 -0.0230143 0 
8.67466e-18 -0.0230143 0 
8.03658e-18 -0.0230143 0 
-6.70112e-18 -0.0230143 0 
6.39938e-19 -0.0230143 0 
-4.94621e-19 -0.0230143 0 
2.64588e-18 -0.0230143 0 
7.55667e-18 -0.0230143 0 
5.33201e-18 -0.0230143 0 
5.67717e-18 -0.0230143 0 
5.3535e-18 -0.0230143 0 
7.71549e-19 -0.0230143 0 
3.16169e-18 -0.0230143 0 
3.9597e-18 -0.0230143 0 
5.09652e-18 -0.0230143 0 
7.14414e-18 -0.0230143 0 
8.5352e-18 -0.0230143 0 
6.85529e-18 -0.0230143 0 
7.61137e-18 -0.0230143 0 
3.98252e-18 -0.0230143 0 
3.4578e-18 -0.0230143 0 
6.73029e-18 -0.0230143 0 
3.07568e-18 -0.0230143 0 
2.93962e-18 -0.0230143 0 
4.61441e-18 -0.0230143 0 
-6.55993e-19 -0.0230143 0 
3.11474e-18 -0.0230143 0 
6.48854e-18 -0.0230143 0 
6.41673e-18 -0.0230143 0 
8.35807e-18 -0.0230143 0 
7.12232e-18 -0.0230143 0 
6.00297e-18 -0.0230143 0 
6.56347e-18 -0.0230143 0 
4.58718e-18 -0.0230143 0 
5.39152e-18 -0.0230143 0 
1.3153e-17 -0.0230143 0 
3.22954e-18 -0.0230143 0 
2.32506e-17 -0.0230143 0 
3.91937e-18 -0.0230143 0 
-7.12779e-18 -0.0230143 0 
1.33493e-18 -0.0230143 0 
-1.64758e-17 -0.0230143 0 
-7.25018e-19 -0.0230143 0 
1.33082e-17 -0.0230143 0 
8.96008e-18 -0.0230143 0 
2.1339e-17 -0.0230143 0 
1.193e-17 -0.0230143 0 
1.83451e-18 -0.0230143 0 
5.34919e-18 -0.0230143 0 
-2.25503e-18 -0.0230143 0 
6.43649e-18 -0.0230143 0 
VECTORS velocity double
-3.55134e-15 -0.66708 0 
-1.01226e-15 -0.66708 0 
-2.19861e-15 -0.66708 0 
-5.64642e-16 -0.66708 0 
4.26322e-15 -0.66708 0 
6.85925e-16 -0.66708 0 
1.49139e-15 -0.66708 0 
5.40598e-16 -0.66708 0 
-2.73778e-15 -0.66708 0 
-4.27597e-16 -0.66708 0 
-3.11319e-16 -0.66708 0 
9.04629e-17 -0.66708 0 
7.26843e-16 -0.66708 0 
-1.83799e-15 -0.66708 0 
-2.00414e-16 -0.66708 0 
-3.13244e-16 -0.66708 0 
-1.46179e-15 -0.66708 0 
-3.50248e-16 -0.66708 0 
-1.34089e-15 -0.66708 0 
-3.69073e-16 -0.66708 0 
1.81753e-16 -0.66708 0 
4.99192e-16 -0.66708 0 
3.34307e-16 -0.66708 0 
5.61708e-16 -0.66708 0 
7.94329e-16 -0.66708 0 
3.89746e-16 -0.66708 0 
5.79162e-16 -0.66708 0 
4.70254e-16 -0.66708 0 
-3.44133e-16 -0.66708 0 
4.53964e-16 -0.66708 0 
2.95686e-16 -0.66708 0 
4.63639e-16 -0.66708 0 
-9.1113e-16 -0.66708 0 
-1.20296e-16 -0.66708 0 
-1.72515e-16 -0.66708 0 
3.96082e-16 -0.66708 0 
4.88854e-16 -0.66708 0 
5.70213e-16 -0.66708 0 
6.45394e-16 -0.66708 0 
5.24706e-16 -0.66708 0 
3.55196e-16 -0.66708 0 
4.89543e-16 -0.66708 0 
1.22431e-16 -0.66708 0 
4.47616e-16 -0.66708 0 
7.98807e-16 -0.66708 0 
4.87258e-16 -0.66708 0 
1.16523e-15 -0.66708 0 
5.24821e-16 -0.66708 0 
1.59313e-15 -0.66708 0 
9.48443e-16 -0.66708 0 
4.38581e-15 -0.66708 0 
1.53679e-15 -0.66708 0 
-6.04112e-16 -0.66708 0 
3.38696e-16 -0.66708 0 
-3.25966e-15 -0.66708 0 
1.21837e-17 -0.66708 0 
1.07412e-15 -0.66708 0 
5.95193e-16 -0.66708 0 
3.21026e-15 -0.66708 0 
9.32274e-16 -0.66708 0 
8.7954e-16 -0.66708 0 
1.40093e-15 -0.66708 0 
-5.82664e-17 -0.66708 0 
3.11559e-15 -0.66708 0 
SCALARS mass double 1
LOOKUP_TABLE default
0.625
0.625
0.625
0.625
0.625
0.625
0.625
0.625
0.625
0.625
0.625
0.625
0.625
0.625
0.625
0.625
0.625
0.625
0.625
0.625
0.625
0.625
0.625
0.625
0.625
0.625
0.625
0.625
0.625
0.625
0.625
0.625
0.625
0.625
0.625
0.625
0.625
0.625
0.625
0.625
0.625
0.625
0.625
0.625
0.625
0.625
0.625
0.625
0.625
0.625
0.625
0.625
0.625
0.625
0.625
0.625
0.625
0.625
0.625
0.625
0.625
0.625
0.625
0.625
SCALARS volume double 1
LOOKUP_TABLE default
0.000625
0.000625
0.000625
0.000625
0.000625
0.000625
0.000625
0.000625
0.000625
0.000625
0.000625
0.000625
0.000625
0.000625
0.000625
0.000625
0.000625
0.000625
0.000625
0.000625
0.000625
0.000625
0.000625
0.000625
0.000625
0.000625
0.000625
0.000625
0.000625
0.000625
0.000625
0.000625
0.000625
0.000625
0.000625
0.000625
0.000625
0.000625
0.000625
0.000625
0.000625
0.000625
0.000625
0.000625
0.000625
0.000625
0.000625
0.000625
0.000625
0.000625
0.000625
0.000625
0.000625
0.000625
0.000625
0.000625
0.000625
0.000625
0.000625
0.000625
0.000625
0.000625
0.000625
0.000625
VECTORS momentum double
-2.21959e-15 -0.416925 0 
-6.3266e-16 -0.416925 0 
-1.37413e-15 -0.416925 0 
-3.52901e-16 -0.416925 0 
2.66451e-15 -0.416925 0 
4.28703e-16 -0.416925 0 
9.32118e-16 -0.416925 0 
3.37874e-16 -0.416925 0 
-1.71111e-15 -0.416925 0 
-2.67248e-16 -0.416925 0 
-1.94574e-16 -0.416925 0 
5.65393e-17 -0.416925 0 
4.54277e-16 -0.416925 0 
-1.14874e-15 -0.416925 0 
-1.25259e-16 -0.416925 0 
-1.95777e-16 -0.416925 0 
-9.1362e-16 -0.416925 0 
-2.18905e-16 -0.416925 0 
-8.38056e-16 -0.416925 0 
-2.30671e-16 -0.416925 0 
1.13596e-16 -0.416925 0 
3.11995e-16 -0.416925 0 
2.08942e-16 -0.416925 0 
3.51068e-16 -0.416925 0 
4.96456e-16 -0.416925 0 
2.43592e-16 -0.416925 0 
3.61976e-16 -0.416925 0 
2.93908e-16 -0.416925 0 
-2.15083e-16 -0.416925 0 
2.83728e-16 -0.416925 0 
1.84804e-16 -0.416925 0 
2.89774e-16 -0.416925 0 
-5.69456e-16 -0.416925 0 
-7.51852e-17 -0.416925 0 
-1.07822e-16 -0.416925 0 
2.47551e-16 -0.416925 0 
3.05534e-16 -0.416925 0 
3.56383e-16 -0.416925 0 
4.03371e-16 -0.416925 0 
3.27941e-16 -0.416925 0 
2.21997e-16 -0.416925 0 
3.05965e-16 -0.416925 0 
7.65195e-17 -0.416925 0 
2.7976e-16 -0.416925 0 
4.99254e-16 -0.416925 0 
3.04536e-16 -0.416925 0 
7.28269e-16 -0.416925 0 
3.28013e-16 -0.416925 0 
9.95707e-16 -0.416925 0 
5.92777e-16 -0.416925 0 
2.74113e-15 -0.416925 0 
9.60492e-16 -0.416925 0 
-3.7757e-16 -0.416925 0 
2.11685e-16 -0.416925 0 
-2.03729e-15 -0.416925 0 
7.61479e-18 -0.416925 0 
6.71324e-16 -0.416925 0 
3.71996e-16 -0.416925 0 
2.00641e-15 -0.416925 0 
5.82671e-16 -0.416925 0 
5.49712e-16 -0.416925 0 
8.75583e-16 -0.416925 0 
-3.64165e-17 -0.416925 0 
1.94725e-15 -0.416925 0 
VECTORS body_force double
0 -9.81 0 
0 -9.81 0 
0 -9.81 0 
0 -9.81 0 
0 -9.81 0 
0 -9.81 0 
0 -9.81 0 
0 -9.81 0 
0 -9.81 0 
0 -9.81 0 
0 -9.81 0 
0 -9.81 0 
0 -9.81 0 
0 -9.81 0 
0 -9.81 0 
0 -9.81 0 
0 -9.81 0 
0 -9.81 0 
0 -9.81 0 
0 -9.81 0 
0 -9.81 0 
0 -9.81 0 
0 -9.81 0 
0 -9.81 0 
0 -9.81 0 
0 -9.81 0 
0 -9.81 0 
0 -9.81 0 
0 -9.81 0 
0 -9.81 0 
0 -9.81 0 
0 -9.81 0 
0 -9.81 0 
0 -9.81 0 
0 -9.81 0 
0 -9.81 0 
0 -9.81 0 
0 -9.81 0 
0 -9.81 0 
0 -9.81 0 
0 -9.81 0 
0 -9.81 0 
0 -9.81 0 
0 -9.81 0 
0 -9.81 0 
0 -9.81 0 
0 -9.81 0 
0 -9.81 0 
0 -9.81 0 
0 -9.81 0 
0 -9.81 0 
0 -9.81 0 
0 -9.81 0 
0 -9.81 0 
0 -9.81 0 
0 -9.81 0 
0 -9.81 0 
0 -9.81 0 
0 -9.81 0 
0 -9.81 0 
0 -9.81 0 
0 -9.81 0 
0 -9.81 0 
0 -9.81 0 
TENSORS cauchy_stress double
5.46402e-11 -1.3138e-11 0
-1.3138e-11 -3.01617e-11 0
0 0 7.34354e-12

-7.19541e-11 3.00764e-11 0
3.00764e-11 -2.2674e-10 0
0 0 -8.96082e-11

5.34032e-11 -9.48829e-12 0
-9.48829e-12 -3.3048e-11 0
0 0 6.10655e-12

-6.73056e-11 7.9022e-12 0
7.9022e-12 -2.15893e-10 0
0 0 -8.49597e-11

4.0329e-12 1.10725e-11 0
1.10725e-11 7.32059e-11 0
0 0 2.31716e-11

7.24758e-11 -4.48932e-11 0
-4.48932e-11 1.64507e-10 0
0 0 7.10949e-11

1.15177e-11 3.5015e-12 0
3.5015e-12 9.06704e-11 0
0 0 3.06564e-11

7.5326e-11 -2.82777e-11 0
-2.82777e-11 1.71158e-10 0
0 0 7.39452e-11

-4.42005e-12 -2.11304e-11 0
-2.11304e-11 -1.13812e-10 0
0 0 -3.54696e-11

-6.21314e-11 2.40689e-11 0
2.40689e-11 -1.9292e-10 0
0 0 -7.65155e-11

-3.03494e-12 -1.49852e-11 0
-1.49852e-11 -1.1058e-10 0
0 0 -3.40844e-11

-6.37535e-11 8.62073e-12 0
8.62073e-12 -1.96705e-10 0
0 0 -7.81376e-11

9.71297e-12 5.76234e-12 0
5.76234e-12 5.10963e-11 0
0 0 1.82428e-11

5.68603e-12 -1.99335e-11 0
-1.99335e-11 -6.43576e-12 0
0 0 -2.24921e-13

1.05821e-11 7.88159e-13 0
7.88159e-13 5.31242e-11 0
0 0 1.91119e-11

1.2602e-11 -6.58703e-12 0
-6.58703e-12 9.70143e-12 0
0 0 6.69102e-12

7.01125e-12 -1.10499e-11 0
-1.10499e-11 -4.72968e-11 0
0 0 -1.20857e-11

-7.89779e-11 -5.79595e-12 0
-5.79595e-12 -2.04856e-10 0
0 0 -8.515e-11

2.73291e-11 -1.64585e-11 0
-1.64585e-11 1.11571e-13 0
0 0 8.23221e-12

-7.84671e-11 -1.12081e-11 0
-1.12081e-11 -2.03664e-10 0
0 0 -8.46392e-11

4.05519e-11 -6.4332e-12 0
-6.4332e-12 1.13898e-10 0
0 0 4.63349e-11

7.73376e-11 -1.95455e-11 0
-1.95455e-11 1.80234e-10 0
0 0 7.72715e-11

4.54442e-11 -1.21428e-11 0
-1.21428e-11 1.25313e-10 0
0 0 5.12272e-11

8.56787e-11 -1.3014e-11 0
-1.3014e-11 1.99697e-10 0
0 0 8.56126e-11

-3.65613e-11 -1.09143e-11 0
-1.09143e-11 -1.18009e-10 0
0 0 -4.6371e-11

-7.46306e-11 8.24486e-13 0
8.24486e-13 -1.93983e-10 0
0 0 -8.05839e-11

-3.18499e-11 -8.25271e-12 0
-8.25271e-12 -1.07015e-10 0
0 0 -4.16596e-11

-7.79629e-11 -4.45885e-12 0
-4.45885e-12 -2.01758e-10 0
0 0 -8.39162e-11

2.107e-11 -8.37348e-13 0
-8.37348e-13 5.21259e-11 0
0 0 2.19588e-11

-1.13459e-12 -5.86419e-12 0
-5.86419e-12 6.8278e-12 0
0 0 1.70796e-12

2.18322e-11 -3.81688e-12 0
-3.81688e-12 5.39044e-11 0
0 0 2.2721e-11

1.35701e-12 -4.5715e-12 0
-4.5715e-12 1.26415e-11 0
0 0 4.19956e-12

1.44482e-11 -5.40629e-12 0
-5.40629e-12 5.53024e-12 0
0 0 5.99354e-12

-8.57694e-11 -7.58869e-12 0
-7.58869e-12 -1.9621e-10 0
0 0 -8.45937e-11

1.09734e-11 -9.64818e-12 0
-9.64818e-12 -2.57759e-12 0
0 0 2.51876e-12

-8.49015e-11 -1.40284e-11 0
-1.40284e-11 -1.94184e-10 0
0 0 -8.37258e-11

3.93569e-11 -4.7923e-12 0
-4.7923e-12 1.28711e-10 0
0 0 5.04203e-11

7.8242e-11 -1.29755e-12 0
-1.29755e-12 1.97946e-10 0
0 0 8.28564e-11

4.07328e-11 -8.53537e-12 0
-8.53537e-12 1.31921e-10 0
0 0 5.17962e-11

8.19202e-11 3.73529e-12 0
3.73529e-12 2.06528e-10 0
0 0 8.65345e-11

-3.61143e-11 -4.01396e-12 0
-4.01396e-12 -1.03441e-10 0
0 0 -4.18667e-11

-7.75331e-11 -6.08357e-12 0
-6.08357e-12 -1.88147e-10 0
0 0 -7.97041e-11

-3.56355e-11 6.46106e-13 0
6.46106e-13 -1.02324e-10 0
0 0 -4.13879e-11

-8.13313e-11 -9.61039e-12 0
-9.61039e-12 -1.9701e-10 0
0 0 -8.35023e-11

2.25423e-11 -4.13614e-12 0
-4.13614e-12 6.71196e-11 0
0 0 2.68986e-11

-2.86616e-12 -5.59209e-13 0
-5.59209e-13 5.33233e-12 0
0 0 7.39851e-13

2.22685e-11 -6.18369e-12 0
-6.18369e-12 6.64807e-11 0
0 0 2.66247e-11

-2.42581e-12 5.86329e-13 0
5.86329e-13 6.35982e-12 0
0 0 1.1802e-12

4.20364e-11 3.41971e-12 0
3.41971e-12 -5.48055e-12 0
0 0 1.09668e-11

-8.06683e-11 -1.25784e-11 0
-1.25784e-11 -1.95301e-10 0
0 0 -8.27909e-11

4.26153e-11 -3.21736e-12 0
-3.21736e-12 -4.12987e-12 0
0 0 1.15456e-11

-8.90094e-11 -3.05301e-11 0
-3.05301e-11 -2.14764e-10 0
0 0 -9.1132e-11

5.34933e-12 -7.45326e-12 0
-7.45326e-12 1.08359e-10 0
0 0 3.41124e-11

7.35326e-11 1.98501e-11 0
1.98501e-11 1.92704e-10 0
0 0 7.98709e-11

2.59993e-12 -1.39856e-11 0
-1.39856e-11 1.01943e-10 0
0 0 3.1363e-11

7.38304e-11 3.88471e-11 0
3.88471e-11 1.93399e-10 0
0 0 8.01687e-11

-6.62563e-12 9.46996e-12 0
9.46996e-12 -9.78269e-11 0
0 0 -3.13358e-11

-6.5105e-11 -1.42363e-11 0
-1.42363e-11 -1.82373e-10 0
0 0 -7.42433e-11

-5.44028e-12 1.69585e-11 0
1.69585e-11 -9.50611e-11 0
0 0 -3.01504e-11

-6.25669e-11 -2.69631e-11 0
-2.69631e-11 -1.76451e-10 0
0 0 -7.17052e-11

9.21603e-12 -5.08596e-12 0
-5.08596e-12 6.34481e-11 0
0 0 2.17992e-11

1.19988e-11 5.95358e-12 0
5.95358e-12 1.68454e-11 0
0 0 8.65328e-12

6.86415e-12 -7.96039e-12 0
-7.96039e-12 5.79603e-11 0
0 0 1.94473e-11

2.21017e-12 1.72058e-11 0
1.72058e-11 -5.99473e-12 0
0 0 -1.13537e-12

TENSORS velocity_gradient double
2.0335e-15 2.87793e-14 0
-1.95399e-14 7.28306e-14 0
0 0 0

-2.2392e-15 4.37019e-14 0
-1.59872e-14 3.37508e-14 0
0 0 0

2.0335e-15 3.01333e-14 0
-1.77636e-14 4.9738e-14 0
0 0 0

-2.2392e-15 3.57727e-14 0
-2.4869e-14 4.26326e-14 0
0 0 0

-1.01684e-14 4.37019e-14 0
-1.59872e-14 3.37508e-14 0
0 0 0

-4.91222e-15 -2.6396e-14 0
-1.59872e-14 -3.73035e-14 0
0 0 0

-1.01684e-14 3.57727e-14 0
-7.10543e-15 3.55271e-14 0
0 0 0

-4.91222e-15 -1.25712e-14 0
-7.10543e-15 -2.13163e-14 0
0 0 0

8.91264e-15 -2.6396e-14 0
-8.88178e-15 -3.01981e-14 0
0 0 0

1.44048e-14 -7.93532e-15 0
8.88178e-16 -2.04281e-14 0
0 0 0

8.91264e-15 -1.25712e-14 0
-1.42109e-14 -3.19744e-14 0
0 0 0

1.44048e-14 -7.85821e-15 0
-1.42109e-14 -2.13163e-14 0
0 0 0

1.44819e-14 -7.93532e-15 0
0 -2.13163e-14 0
0 0 0

1.20333e-14 1.41819e-14 0
-3.55271e-15 3.90799e-14 0
0 0 0

1.44819e-14 -7.85821e-15 0
-7.10543e-15 -2.84217e-14 0
0 0 0

1.20333e-14 1.00918e-14 0
5.32907e-15 4.08562e-14 0
0 0 0

1.46961e-14 2.45582e-14 0
5.32907e-15 2.66454e-14 0
0 0 0

6.2366e-15 2.88925e-14 0
3.55271e-15 4.61853e-14 0
0 0 0

1.46961e-14 1.2054e-14 0
3.55271e-15 1.06581e-14 0
0 0 0

6.2366e-15 2.30614e-14 0
-5.32907e-15 4.44089e-14 0
0 0 0

4.05515e-16 2.88925e-14 0
-1.06581e-14 4.26326e-14 0
0 0 0

1.80915e-16 -3.94931e-15 0
-7.10543e-15 -2.84217e-14 0
0 0 0

4.05515e-16 2.30614e-14 0
-7.10543e-15 3.55271e-14 0
0 0 0

1.80915e-16 -5.30488e-16 0
-3.55271e-15 -3.90799e-14 0
0 0 0

3.59974e-15 -3.94931e-15 0
-1.77636e-14 -4.26326e-14 0
0 0 0

7.47644e-15 -5.73253e-15 0
-1.86517e-14 -1.86517e-14 0
0 0 0

3.59974e-15 -5.30488e-16 0
-1.06581e-14 -2.84217e-14 0
0 0 0

7.47644e-15 -1.55826e-15 0
-8.88178e-15 -2.30926e-14 0
0 0 0

1.16507e-14 -5.73253e-15 0
-1.06581e-14 -2.13163e-14 0
0 0 0

1.10263e-14 6.17544e-15 0
-6.21725e-15 5.06262e-14 0
0 0 0

1.16507e-14 -1.55826e-15 0
-3.55271e-15 -3.19744e-14 0
0 0 0

1.10263e-14 2.43266e-15 0
-3.55271e-15 4.61853e-14 0
0 0 0

2.85579e-14 1.64503e-15 0
5.32907e-15 8.88178e-15 0
0 0 0

1.68174e-14 1.31621e-14 0
-2.66454e-15 2.57572e-14 0
0 0 0

2.85579e-14 -6.6687e-15 0
3.55271e-15 1.42109e-14 0
0 0 0

1.68174e-14 -8.05357e-16 0
-8.88178e-15 5.32907e-15 0
0 0 0

2.84992e-15 1.31621e-14 0
-1.59872e-14 2.30926e-14 0
0 0 0

-1.06732e-15 2.48592e-15 0
-9.76996e-15 -3.4639e-14 0
0 0 0

2.84992e-15 -8.05357e-16 0
-1.77636e-14 1.06581e-14 0
0 0 0

-1.06732e-15 5.09992e-15 0
-1.59872e-14 -3.01981e-14 0
0 0 0

1.54668e-15 2.48592e-15 0
-1.24345e-14 -3.37508e-14 0
0 0 0

5.03042e-15 2.55334e-15 0
-7.99361e-15 -2.93099e-14 0
0 0 0

1.54668e-15 5.09992e-15 0
-1.06581e-14 -2.13163e-14 0
0 0 0

5.03042e-15 6.60228e-15 0
0 -2.13163e-14 0
0 0 0

9.07937e-15 2.55334e-15 0
-7.10543e-15 -1.42109e-14 0
0 0 0

9.77207e-15 -1.82912e-16 0
-1.86517e-14 3.81917e-14 0
0 0 0

9.07937e-15 6.60228e-15 0
-1.77636e-14 -1.77636e-14 0
0 0 0

9.77207e-15 -1.67128e-15 0
-8.88178e-15 4.08562e-14 0
0 0 0

2.82949e-14 -7.02634e-15 0
1.77636e-14 2.4869e-14 0
0 0 0

1.76631e-14 -1.90285e-14 0
1.24345e-14 1.77636e-15 0
0 0 0

2.82949e-14 5.72111e-16 0
2.13163e-14 1.42109e-14 0
0 0 0

1.76631e-14 -4.15073e-14 0
1.95399e-14 -8.88178e-15 0
0 0 0

-4.81564e-15 -1.90285e-14 0
1.59872e-14 8.88178e-15 0
0 0 0

-6.50162e-15 1.23201e-14 0
2.66454e-15 -1.86517e-14 0
0 0 0

-4.81564e-15 -4.15073e-14 0
1.06581e-14 -3.55271e-15 0
0 0 0

-6.50162e-15 2.41465e-14 0
1.77636e-15 -3.01981e-14 0
0 0 0

5.32476e-15 1.23201e-14 0
-1.77636e-15 -2.30926e-14 0
0 0 0

1.14422e-14 9.83045e-15 0
-6.21725e-15 -1.33227e-14 0
0 0 0

5.32476e-15 2.41465e-14 0
0 -2.84217e-14 0
0 0 0

1.14422e-14 1.22379e-14 0
-1.24345e-14 -1.95399e-14 0
0 0 0

1.38496e-14 9.83045e-15 0
1.77636e-15 -1.24345e-14 0
0 0 0

1.33504e-14 -3.6095e-15 0
1.77636e-15 3.73035e-14 0
0 0 0

1.38496e-14 1.22379e-14 0
3.55271e-15 -2.4869e-14 0
0 0 0

1.33504e-14 -5.99756e-15 0
-3.55271e-15 3.19744e-14 0
0 0 0

SCALARS active double 1
LOOKUP_TABLE default
1
1
1
1
1
1
1
1
1
1
1
1
1
1
1
1
1
1
1
1
1
1
1
1
1
1
1
1
1
1
1
1
1
1
1
1
1
1
1
1
1
1
1
1
1
1
1
1
1
1
1
1
1
1
1
1
1
1
1
1
1
1
1
1
SCALARS extent double 1
LOOKUP_TABLE default
0.0125
0.0125
0.0125
0.0125
0.0125
0.0125
0.0125
0.0125
0.0125
0.0125
0.0125
0.0125
0.0125
0.0125
0.0125
0.0125
0.0125
0.0125
0.0125
0.0125
0.0125
0.0125
0.0125
0.0125
0.0125
0.0125
0.0125
0.0125
0.0125
0.0125
0.0125
0.0125
0.0125
0.0125
0.0125
0.0125
0.0125
0.0125
0.0125
0.0125
0.0125
0.0125
0.0125
0.0125
0.0125
0.0125
0.0125
0.0125
0.0125
0.0125
0.0125
0.0125
0.0125
0.0125
0.0125
0.0125
0.0125
0.0125
0.0125
0.0125
0.0125
0.0125
0.0125
0.0125
SCALARS pressure double 1
LOOKUP_TABLE default
-1.06073e-11
1.29434e-10
-8.82057e-12
1.2272e-10
-3.34701e-11
-1.02693e-10
-4.42815e-11
-1.0681e-10
5.12338e-11
1.10522e-10
4.92331e-11
1.12865e-10
-2.63507e-11
3.24885e-13
-2.76061e-11
-9.66481e-12
1.74571e-11
1.22995e-10
-1.1891e-11
1.22257e-10
-6.69282e-11
-1.11614e-10
-7.39949e-11
-1.23663e-10
6.69803e-11
1.16399e-10
6.0175e-11
1.21212e-10
-3.17182e-11
-2.46706e-12
-3.28192e-11
-6.06603e-12
-8.65734e-12
1.22191e-10
-3.6382e-12
1.20937e-10
-7.28293e-11
-1.19681e-10
-7.48167e-11
-1.24994e-10
6.04741e-11
1.15128e-10
5.97826e-11
1.20615e-10
-3.88535e-11
-1.06867e-12
-3.8458e-11
-1.70474e-12
-1.58409e-11
1.19587e-10
-1.6677e-11
1.31635e-10
-4.92734e-11
-1.15369e-10
-4.5302e-11
-1.15799e-10
4.52628e-11
1.0724e-10
4.35506e-11
1.03574e-10
-3.14878e-11
-1.24992e-11
-2.80906e-11
1.63998e-12
SCALARS density double 1
LOOKUP_TABLE default
1000
1000
1000
1000
1000
1000
1000
1000
1000
1000
1000
1000
1000
1000
1000
1000
1000
1000
1000
1000
1000
1000
1000
1000
1000
1000
1000
1000
1000
1000
1000
1000
1000
1000
1000
1000
1000
1000
1000
1000
1000
1000
1000
1000
1000
1000
1000
1000
1000
1000
1000
1000
1000
1000
1000
1000
1000
1000
1000
1000
1000
1000
1000
1000
