# vtk DataFile Version 3.0
Frame: 44, Time: 0.734
ASCII
DATASET UNSTRUCTURED_GRID
POINTS 64 double
0.630053 0.474557 0 
0.646903 0.454356 0 
0.609676 0.45846 0 
0.625518 0.437157 0 
0.660922 0.43301 0 
0.677293 0.411854 0 
0.640545 0.41706 0 
0.656691 0.39663 0 
0.693769 0.392112 0 
0.70694 0.370459 0 
0.671804 0.37678 0 
0.685451 0.355935 0 
0.723977 0.351594 0 
0.741283 0.334579 0 
0.702925 0.336685 0 
0.718769 0.317296 0 
0.590178 0.442839 0 
0.604866 0.421567 0 
0.570728 0.428556 0 
0.586256 0.405997 0 
0.620982 0.401671 0 
0.636454 0.382263 0 
0.601443 0.385338 0 
0.616006 0.366138 0 
0.650896 0.36122 0 
0.665531 0.340306 0 
0.63142 0.34565 0 
0.646792 0.324841 0 
0.682412 0.320223 0 
0.699594 0.300388 0 
0.662067 0.30468 0 
0.678071 0.283963 0 
0.550821 0.413597 0 
0.564627 0.390977 0 
0.531462 0.397635 0 
0.544362 0.375197 0 
0.581313 0.371371 0 
0.595658 0.34929 0 
0.561985 0.355547 0 
0.575403 0.334416 0 
0.611324 0.328708 0 
0.627116 0.30867 0 
0.590396 0.313187 0 
0.60543 0.29336 0 
0.641293 0.286698 0 
0.657948 0.266805 0 
0.619385 0.271011 0 
0.638109 0.251592 0 
0.51223 0.383256 0 
0.524855 0.361368 0 
0.488907 0.368061 0 
0.502426 0.34633 0 
0.541083 0.341758 0 
0.555836 0.318904 0 
0.51879 0.326788 0 
0.534026 0.304306 0 
0.57008 0.297748 0 
0.584359 0.276606 0 
0.548075 0.28434 0 
0.562963 0.262068 0 
0.600304 0.255091 0 
0.618008 0.236173 0 
0.579315 0.240838 0 
0.597375 0.221935 0 
CELLS 64 128
1 0
1 1
1 2
1 3
1 4
1 5
1 6
1 7
1 8
1 9
1 10
1 11
1 12
1 13
1 14
1 15
1 16
1 17
1 18
1 19
1 20
1 21
1 22
1 23
1 24
1 25
1 26
1 27
1 28
1 29
1 30
1 31
1 32
1 33
1 34
1 35
1 36
1 37
1 38
1 39
1 40
1 41
1 42
1 43
1 44
1 45
1 46
1 47
1 48
1 49
1 50
1 51
1 52
1 53
1 54
1 55
1 56
1 57
1 58
1 59
1 60
1 61
1 62
1 63
CELL_TYPES 64
1
1
1
1
1
1
1
1
1
1
1
1
1
1
1
1
1
1
1
1
1
1
1
1
1
1
1
1
1
1
1
1
1
1
1
1
1
1
1
1
1
1
1
1
1
1
1
1
1
1
1
1
1
1
1
1
1
1
1
1
1
1
1
1
POINT_DATA 64
VECTORS displacement double
0.117553 -0.137943 0 
0.134403 -0.183144 0 
0.0721759 -0.15404 0 
0.0880177 -0.200343 0 
0.148422 -0.22949 0 
0.164793 -0.275646 0 
0.103045 -0.24544 0 
0.119191 -0.29087 0 
0.181269 -0.320388 0 
0.19444 -0.367041 0 
0.134304 -0.33572 0 
0.147951 -0.381565 0 
0.211477 -0.410906 0 
0.228783 -0.452921 0 
0.165425 -0.425815 0 
0.181269 -0.470204 0 
0.0276777 -0.169661 0 
0.0423659 -0.215933 0 
-0.0167722 -0.183944 0 
-0.00124448 -0.231503 0 
0.0584819 -0.260829 0 
0.0739543 -0.305237 0 
0.0139426 -0.277162 0 
0.0285062 -0.321362 0 
0.088396 -0.35128 0 
0.103031 -0.397194 0 
0.0439205 -0.36685 0 
0.0592917 -0.412659 0 
0.119912 -0.442277 0 
0.137094 -0.487112 0 
0.0745667 -0.45782 0 
0.0905709 -0.503537 0 
-0.0616794 -0.198903 0 
-0.0478732 -0.246523 0 
-0.106038 -0.214865 0 
-0.0931384 -0.262303 0 
-0.0311868 -0.291129 0 
-0.0168417 -0.33821 0 
-0.0755153 -0.306953 0 
-0.0620975 -0.353084 0 
-0.00117552 -0.383792 0 
0.0146156 -0.42883 0 
-0.047104 -0.399313 0 
-0.0320695 -0.44414 0 
0.0287928 -0.475802 0 
0.0454475 -0.520695 0 
-0.0181149 -0.491489 0 
0.000608576 -0.535908 0 
-0.15027 -0.229244 0 
-0.137645 -0.276132 0 
-0.198593 -0.244439 0 
-0.185074 -0.29117 0 
-0.121417 -0.320742 0 
-0.106664 -0.368596 0 
-0.16871 -0.335712 0 
-0.153474 -0.383194 0 
-0.09242 -0.414752 0 
-0.0781412 -0.460894 0 
-0.139425 -0.42816 0 
-0.124537 -0.475432 0 
-0.0621958 -0.507409 0 
-0.0444923 -0.551327 0 
-0.108185 -0.521662 0 
-0.0901248 -0.565565 0 
VECTORS velocity double
-1.46102 -0.903051 0 
-1.19624 -0.62558 0 
-1.4923 -1.2935 0 
-1.01065 -0.790613 0 
-1.35059 -0.74052 0 
-1.44607 -0.694014 0 
-1.54922 -0.705647 0 
-1.34816 -0.660325 0 
-1.01328 -0.348325 0 
-1.47473 -0.606806 0 
-1.27905 -0.441016 0 
-1.69002 -0.75814 0 
-1.47038 -0.0942164 0 
-1.00356 -0.028648 0 
-0.745085 -0.441142 0 
-1.10371 0.0774837 0 
-1.33328 -0.908838 0 
-1.36939 -1.22124 0 
-1.6965 -1.21309 0 
-1.50828 -0.774004 0 
-1.38116 -0.924731 0 
-1.10605 -0.974372 0 
-1.74212 -0.753481 0 
-1.68499 -0.855986 0 
-1.22274 -0.593525 0 
-1.42987 -0.714532 0 
-1.33933 -0.905746 0 
-1.17675 -0.740032 0 
-1.24584 -0.738306 0 
-0.727358 -0.574516 0 
-1.18261 -0.70687 0 
-1.4069 -0.279395 0 
-1.6005 -1.62656 0 
-0.877917 -1.37909 0 
-1.83458 -1.58943 0 
-1.34189 -1.52248 0 
-1.00837 -1.39122 0 
-1.19913 -1.11901 0 
-1.4876 -1.66546 0 
-1.16718 -1.01588 0 
-0.689166 -0.762783 0 
-1.19225 -0.826925 0 
-1.08166 -1.15834 0 
-1.8477 -0.839071 0 
-1.0122 -1.38472 0 
-0.631716 -0.825476 0 
-1.1266 -1.29888 0 
-1.21735 -0.517361 0 
-1.36996 -1.50405 0 
-1.4564 -1.69702 0 
-1.43237 -1.91861 0 
-1.00976 -1.72331 0 
-1.55191 -1.29876 0 
-0.818993 -0.679235 0 
-1.49653 -1.58913 0 
-1.37392 -1.36265 0 
-0.940374 -0.902194 0 
-1.75782 -0.999419 0 
-1.16732 -1.17652 0 
-1.24045 -1.3301 0 
-0.857459 -0.75809 0 
-1.40422 -0.575685 0 
-1.08264 -0.885964 0 
-0.926334 -1.01331 0 
SCALARS mass double 1
LOOKUP_TABLE default
0.625
0.625
0.625
0.625
0.625
0.625
0.625
0.625
0.625
0.625
0.625
0.625
0.625
0.625
0.625
0.625
0.625
0.625
0.625
0.625
0.625
0.625
0.625
0.625
0.625
0.625
0.625
0.625
0.625
0.625
0.625
0.625
0.625
0.625
0.625
0.625
0.625
0.625
0.625
0.625
0.625
0.625
0.625
0.625
0.625
0.625
0.625
0.625
0.625
0.625
0.625
0.625
0.625
0.625
0.625
0.625
0.625
0.625
0.625
0.625
0.625
0.625
0.625
0.625
SCALARS volume double 1
LOOKUP_TABLE default
0.00063394
0.000627073
0.000618406
0.000630979
0.000629412
0.000630594
0.000617496
0.000606903
0.000630113
0.000616829
0.000635789
0.000626663
0.000623645
0.000633154
0.000621644
0.000613644
0.000610519
0.00061739
0.000629842
0.000620049
0.000623279
0.000623414
0.000601262
0.000611624
0.000632548
0.000629302
0.000624055
0.000609941
0.000626979
0.000643769
0.000638445
0.000622604
0.000608668
0.000632224
0.000623422
0.000619208
0.000618542
0.000638785
0.0006373
0.000597351
0.000637893
0.000642195
0.000629941
0.00064474
0.000641064
0.000611914
0.000656799
0.000600754
0.000629851
0.00060177
0.000630425
0.000620564
0.000626999
0.00062503
0.000617758
0.000633871
0.000622671
0.000646093
0.000610632
0.000621063
0.000612893
0.000615358
0.000635175
0.000620995
VECTORS momentum double
-0.913139 -0.564407 0 
-0.747649 -0.390988 0 
-0.932686 -0.808436 0 
-0.631659 -0.494133 0 
-0.844118 -0.462825 0 
-0.903791 -0.433759 0 
-0.968259 -0.441029 0 
-0.842601 -0.412703 0 
-0.633301 -0.217703 0 
-0.921704 -0.379254 0 
-0.799407 -0.275635 0 
-1.05626 -0.473837 0 
-0.918985 -0.0588852 0 
-0.627222 -0.017905 0 
-0.465678 -0.275713 0 
-0.68982 0.0484273 0 
-0.8333 -0.568024 0 
-0.85587 -0.763273 0 
-1.06031 -0.758178 0 
-0.942675 -0.483752 0 
-0.863222 -0.577957 0 
-0.691282 -0.608983 0 
-1.08883 -0.470926 0 
-1.05312 -0.534991 0 
-0.764209 -0.370953 0 
-0.893667 -0.446582 0 
-0.837083 -0.566091 0 
-0.735466 -0.46252 0 
-0.778649 -0.461441 0 
-0.454599 -0.359073 0 
-0.739132 -0.441794 0 
-0.87931 -0.174622 0 
-1.00031 -1.0166 0 
-0.548698 -0.861928 0 
-1.14661 -0.993395 0 
-0.838681 -0.95155 0 
-0.630233 -0.869511 0 
-0.749455 -0.699381 0 
-0.929752 -1.04091 0 
-0.729485 -0.634926 0 
-0.430729 -0.476739 0 
-0.745156 -0.516828 0 
-0.676037 -0.72396 0 
-1.15481 -0.52442 0 
-0.632626 -0.865451 0 
-0.394823 -0.515922 0 
-0.704126 -0.811802 0 
-0.760844 -0.323351 0 
-0.856223 -0.940034 0 
-0.91025 -1.06064 0 
-0.895234 -1.19913 0 
-0.631101 -1.07707 0 
-0.969942 -0.811724 0 
-0.511871 -0.424522 0 
-0.935332 -0.993206 0 
-0.858697 -0.851656 0 
-0.587734 -0.563871 0 
-1.09864 -0.624637 0 
-0.729572 -0.735322 0 
-0.775284 -0.831315 0 
-0.535912 -0.473806 0 
-0.87764 -0.359803 0 
-0.676652 -0.553727 0 
-0.578959 -0.633316 0 
VECTORS body_force double
0 -9.81 0 
0 -9.81 0 
0 -9.81 0 
0 -9.81 0 
0 -9.81 0 
0 -9.81 0 
0 -9.81 0 
0 -9.81 0 
0 -9.81 0 
0 -9.81 0 
0 -9.81 0 
0 -9.81 0 
0 -9.81 0 
0 -9.81 0 
0 -9.81 0 
0 -9.81 0 
0 -9.81 0 
0 -9.81 0 
0 -9.81 0 
0 -9.81 0 
0 -9.81 0 
0 -9.81 0 
0 -9.81 0 
0 -9.81 0 
0 -9.81 0 
0 -9.81 0 
0 -9.81 0 
0 -9.81 0 
0 -9.81 0 
0 -9.81 0 
0 -9.81 0 
0 -9.81 0 
0 -9.81 0 
0 -9.81 0 
0 -9.81 0 
0 -9.81 0 
0 -9.81 0 
0 -9.81 0 
0 -9.81 0 
0 -9.81 0 
0 -9.81 0 
0 -9.81 0 
0 -9.81 0 
0 -9.81 0 
0 -9.81 0 
0 -9.81 0 
0 -9.81 0 
0 -9.81 0 
0 -9.81 0 
0 -9.81 0 
0 -9.81 0 
0 -9.81 0 
0 -9.81 0 
0 -9.81 0 
0 -9.81 0 
0 -9.81 0 
0 -9.81 0 
0 -9.81 0 
0 -9.81 0 
0 -9.81 0 
0 -9.81 0 
0 -9.81 0 
0 -9.81 0 
0 -9.81 0 
TENSORS cauchy_stress double
1711.02 -1831.24 0
-1831.24 1020.33 0
0 0 819.406

2118.8 -413.208 0
-413.208 -1482.01 0
0 0 191.039

-2412.03 -430.947 0
-430.947 372.468 0
0 0 -611.87

-1439.7 1065.61 0
1065.61 3270.75 0
0 0 549.314

-899.671 -1849.78 0
-1849.78 2252.36 0
0 0 405.807

1120.86 -715.439 0
-715.439 592.687 0
0 0 514.063

-1603.24 -2252.92 0
-2252.92 -719.66 0
0 0 -696.871

-5645.09 508.493 0
508.493 -5.54617 0
0 0 -1695.19

2089.36 -401.585 0
-401.585 -522.554 0
0 0 470.042

-1594.25 -491.823 0
-491.823 -936.337 0
0 0 -759.176

2176.74 3577.2 0
3577.2 1114.76 0
0 0 987.45

-1881.39 646.971 0
646.971 2392.47 0
0 0 153.325

1043.82 281.805 0
281.805 -1461.25 0
0 0 -125.229

936.344 369.465 0
369.465 1556.38 0
0 0 747.816

-1311.71 1148.23 0
1148.23 276.247 0
0 0 -310.639

-489.736 2370.86 0
2370.86 -3036.62 0
0 0 -1057.91

-1483.34 124.753 0
124.753 -3024.67 0
0 0 -1352.4

251.068 -241.114 0
-241.114 -2607.13 0
0 0 -706.817

-1388.67 -2121.88 0
-2121.88 2872.83 0
0 0 445.247

1133.29 -1090.74 0
-1090.74 -2662.67 0
0 0 -458.814

-1400.48 2048.86 0
2048.86 870.337 0
0 0 -159.042

-1448.38 2552.44 0
2552.44 959.895 0
0 0 -146.544

-5705.75 -985.242 0
-985.242 -1740.51 0
0 0 -2233.88

1071.62 1293.07 0
1293.07 -5231.85 0
0 0 -1248.07

-2096.48 1031.95 0
1031.95 4405.11 0
0 0 692.591

480.09 -2964.88 0
-2964.88 839.138 0
0 0 395.769

847.909 -2468.62 0
-2468.62 -1138.88 0
0 0 -87.2904

-2015.99 -496.98 0
-496.98 -2674.4 0
0 0 -1407.12

-326.434 -172.873 0
-172.873 934.385 0
0 0 182.385

-689.128 -781.135 0
-781.135 6379.31 0
0 0 1707.06

2603.2 826.888 0
826.888 1489.93 0
0 0 1227.94

1198.43 1373.1 0
1373.1 -1936.96 0
0 0 -221.557

-3536.28 -986.35 0
-986.35 -1555.92 0
0 0 -1527.66

1453.14 395.025 0
395.025 756.791 0
0 0 662.978

-159.612 -2525.63 0
-2525.63 -326.662 0
0 0 -145.882

72.155 -1322.45 0
-1322.45 -1862.57 0
0 0 -537.126

-2375.48 -2739.85 0
-2739.85 378.007 0
0 0 -599.241

-3264.55 -567.639 0
-567.639 7459.98 0
0 0 1258.63

1016.69 -288.709 0
-288.709 2731.1 0
0 0 1124.34

-2330.56 3351.28 0
3351.28 -6370.65 0
0 0 -2610.36

4560.87 164.622 0
164.622 -634.005 0
0 0 1178.06

-3733.88 2724.17 0
2724.17 8953.22 0
0 0 1565.8

-1073.84 -1301.73 0
-1301.73 2588.26 0
0 0 454.327

-736.024 4445.13 0
4445.13 6716.01 0
0 0 1794

-2792.87 2831.69 0
2831.69 7673.27 0
0 0 1464.12

-2477.89 445.156 0
445.156 -1591.38 0
0 0 -1220.78

10314.1 -3446 0
-3446 -770.61 0
0 0 2863.05

919.424 -1902.36 0
-1902.36 -8528.26 0
0 0 -2282.65

1166.53 208.365 0
208.365 320.414 0
0 0 446.084

-873.966 -37.7397 0
-37.7397 -6409.93 0
0 0 -2185.17

464.726 1097.8 0
1097.8 1197.23 0
0 0 498.586

-1471.21 234.212 0
234.212 101.361 0
0 0 -410.955

1054.96 -1539.27 0
-1539.27 -440.948 0
0 0 184.203

852.754 -3573.39 0
-3573.39 -843.524 0
0 0 2.76889

1055.19 1593.11 0
1593.11 -3296.47 0
0 0 -672.384

612.936 113.983 0
113.983 2097.32 0
0 0 813.078

3255.14 -2170.93 0
-2170.93 -3973.18 0
0 0 -215.412

1044.48 353.846 0
353.846 5338.54 0
0 0 1914.91

-6449.53 292.658 0
292.658 1976.85 0
0 0 -1341.8

-3063.27 1228.08 0
1228.08 1847.94 0
0 0 -364.6

3280.14 -2512.9 0
-2512.9 -7041.98 0
0 0 -1128.55

-3808.84 2022.03 0
2022.03 819.034 0
0 0 -896.94

3578.05 -456.292 0
-456.292 -472.537 0
0 0 931.655

980.965 116.137 0
116.137 -2217.24 0
0 0 -370.882

TENSORS velocity_gradient double
0.990126 -1.2798 0
5.86169 -1.36686 0
0 0 0

0.689714 -1.47376 0
4.29072 -0.26193 0
0 0 0

1.4371 -0.711413 0
4.93967 -2.53931 0
0 0 0

1.58894 1.03027 0
4.54534 -0.787468 0
0 0 0

-0.0221182 0.681595 0
3.15452 -1.49685 0
0 0 0

0.959079 -0.0742459 0
3.88298 -2.058 0
0 0 0

1.39998 1.17096 0
4.79816 -0.975697 0
0 0 0

1.33257 -0.750606 0
4.31825 -0.536839 0
0 0 0

1.08447 -0.457109 0
4.55453 -0.790562 0
0 0 0

0.159323 -0.734339 0
6.48305 -1.15942 0
0 0 0

0.923957 -0.997275 0
4.65786 -0.439416 0
0 0 0

0.356827 -0.628027 0
4.97873 -0.648333 0
0 0 0

1.12578 -2.70454 0
7.10644 -1.44589 0
0 0 0

1.42716 -4.68282 0
7.2186 -0.737133 0
0 0 0

1.28256 -4.44556 0
7.02405 -0.773472 0
0 0 0

1.51909 -4.56178 0
7.16568 -0.806814 0
0 0 0

3.57747 0.108213 0
6.03144 0.153494 0
0 0 0

1.44379 0.837359 0
4.73954 -0.529364 0
0 0 0

2.46359 -1.42622 0
7.07261 1.5455 0
0 0 0

0.666672 -0.198189 0
8.69959 0.43361 0
0 0 0

1.17198 -0.234589 0
5.01123 -0.343419 0
0 0 0

0.297641 -2.29797 0
5.42988 0.209182 0
0 0 0

0.571025 -4.04567 0
6.19771 0.911689 0
0 0 0

-0.58633 -3.43017 0
5.81556 0.703165 0
0 0 0

0.0588257 -1.62129 0
5.23389 -0.100867 0
0 0 0

0.500386 -3.2793 0
5.74875 1.59945 0
0 0 0

-1.05249 -1.55157 0
5.67896 0.865453 0
0 0 0

0.666547 -2.42195 0
4.75575 2.25239 0
0 0 0

1.21442 -3.87374 0
7.24715 0.35201 0
0 0 0

1.80851 -3.43062 0
8.10103 -0.440841 0
0 0 0

1.75414 -3.02265 0
8.32611 1.62396 0
0 0 0

2.33681 -1.55988 0
7.57679 -0.566986 0
0 0 0

1.41118 -2.88171 0
7.15784 2.70565 0
0 0 0

0.505862 -2.61577 0
8.76485 -0.835752 0
0 0 0

1.3031 -2.9398 0
4.44328 0.379931 0
0 0 0

0.5379 -2.06237 0
5.6961 -1.43292 0
0 0 0

1.53482 -3.48114 0
7.62775 0.120571 0
0 0 0

1.41554 -1.7353 0
6.27021 -0.719874 0
0 0 0

2.3524 -2.47361 0
6.72424 -0.992846 0
0 0 0

1.36491 -0.748771 0
5.8194 -3.2612 0
0 0 0

0.142849 0.392172 0
4.07861 -1.10857 0
0 0 0

1.79419 -0.904022 0
1.95683 0.556891 0
0 0 0

-0.624877 0.646383 0
5.06236 -2.73039 0
0 0 0

2.3838 -1.97183 0
1.21332 -1.15937 0
0 0 0

2.21662 -1.05118 0
1.44331 -2.56181 0
0 0 0

2.76352 -1.05675 0
6.23363 -2.1507 0
0 0 0

1.75824 -1.69089 0
2.06912 -1.68843 0
0 0 0

1.1501 -0.678913 0
2.65885 -0.662033 0
0 0 0

0.749177 -3.3716 0
4.86261 0.0991246 0
0 0 0

-0.212355 -2.82193 0
5.9854 -0.542719 0
0 0 0

-0.257411 -3.64642 0
2.14637 0.225146 0
0 0 0

-0.214927 -0.432481 0
5.44341 -2.94725 0
0 0 0

-0.0799278 -2.45742 0
6.56277 -4.29647 0
0 0 0

-0.0741746 -2.57149 0
5.27188 -3.95467 0
0 0 0

1.43481 -0.189283 0
6.38433 -4.56368 0
0 0 0

3.80942 -1.40532 0
6.06334 -4.34318 0
0 0 0

-1.54842 -1.12516 0
4.61435 -2.07468 0
0 0 0

-0.969405 -1.66326 0
4.34869 -1.00379 0
0 0 0

4.27119 0.820587 0
4.04807 -1.86299 0
0 0 0

-0.339504 -0.730001 0
4.21258 -1.20545 0
0 0 0

0.780291 -2.06402 0
3.24417 -0.99753 0
0 0 0

0.483024 -0.625082 0
2.19853 2.13364 0
0 0 0

-0.436519 -3.15685 0
3.67432 0.0475226 0
0 0 0

-1.31092 -1.76375 0
2.21174 0.97595 0
0 0 0

SCALARS active double 1
LOOKUP_TABLE default
1
1
1
1
1
1
1
1
1
1
1
1
1
1
1
1
1
1
1
1
1
1
1
1
1
1
1
1
1
1
1
1
1
1
1
1
1
1
1
1
1
1
1
1
1
1
1
1
1
1
1
1
1
1
1
1
1
1
1
1
1
1
1
1
SCALARS extent double 1
LOOKUP_TABLE default
0.0125
0.0125
0.0125
0.0125
0.0125
0.0125
0.0125
0.0125
0.0125
0.0125
0.0125
0.0125
0.0125
0.0125
0.0125
0.0125
0.0125
0.0125
0.0125
0.0125
0.0125
0.0125
0.0125
0.0125
0.0125
0.0125
0.0125
0.0125
0.0125
0.0125
0.0125
0.0125
0.0125
0.0125
0.0125
0.0125
0.0125
0.0125
0.0125
0.0125
0.0125
0.0125
0.0125
0.0125
0.0125
0.0125
0.0125
0.0125
0.0125
0.0125
0.0125
0.0125
0.0125
0.0125
0.0125
0.0125
0.0125
0.0125
0.0125
0.0125
0.0125
0.0125
0.0125
0.0125
SCALARS pressure double 1
LOOKUP_TABLE default
-1183.59
-275.945
883.812
-793.453
-586.166
-742.535
1006.59
2448.61
-678.95
1096.59
-1426.32
-221.469
180.887
-1080.18
448.7
1528.09
1953.47
1020.96
-643.135
662.731
229.727
211.675
3226.71
1802.76
-1000.41
-571.666
126.086
2032.5
-263.445
-2465.75
-1773.69
320.027
2206.62
-957.635
210.718
775.848
865.57
-1818.02
-1624.04
3770.52
-1701.64
-2261.71
-656.251
-2591.33
-2114.84
1763.35
-4135.52
3297.16
-644.344
3156.35
-720.179
593.602
-266.071
-3.99951
971.221
-1174.45
311.151
-2765.98
1938.16
526.644
1630.13
1295.58
-1345.72
535.718
SCALARS density double 1
LOOKUP_TABLE default
985.897
996.694
1010.66
990.524
992.991
991.129
1012.15
1029.82
991.886
1013.25
983.03
997.346
1002.17
987.121
1005.4
1018.51
1023.72
1012.33
992.312
1007.98
1002.76
1002.54
1039.48
1021.87
988.067
993.163
1001.51
1024.69
996.844
970.845
978.941
1003.85
1026.83
988.574
1002.53
1009.35
1010.44
978.42
980.7
1046.29
979.787
973.224
992.156
969.383
974.941
1021.39
951.585
1040.36
992.298
1038.6
991.395
1007.15
996.812
999.952
1011.72
986.005
1003.74
967.353
1023.53
1006.34
1019.75
1015.67
983.981
1006.45
