# vtk DataFile Version 3.0
Frame: 17, Time: 0.284
ASCII
DATASET UNSTRUCTURED_GRID
POINTS 64 double
0.409201 0.0295641 0 
0.408292 0.0481885 0 
0.435619 0.0294373 0 
0.435041 0.0479995 0 
0.409684 0.0698424 0 
0.410987 0.0920235 0 
0.435775 0.0696556 0 
0.436512 0.0918519 0 
0.411606 0.115395 0 
0.41207 0.139085 0 
0.436913 0.115275 0 
0.437224 0.139022 0 
0.412257 0.163533 0 
0.412372 0.188194 0 
0.437346 0.163495 0 
0.437418 0.188172 0 
0.461629 0.0293647 0 
0.461324 0.0478921 0 
0.487209 0.029351 0 
0.487108 0.0478762 0 
0.461621 0.0695589 0 
0.461957 0.0917713 0 
0.487207 0.0695602 0 
0.487318 0.091786 0 
0.462174 0.115216 0 
0.462349 0.138985 0 
0.487389 0.115219 0 
0.487446 0.138973 0 
0.462416 0.163463 0 
0.462454 0.188138 0 
0.487468 0.163435 0 
0.487479 0.188091 0 
0.51279 0.0293509 0 
0.512892 0.0478759 0 
0.538371 0.0293643 0 
0.538675 0.0478912 0 
0.512792 0.0695595 0 
0.51268 0.0917847 0 
0.538378 0.0695569 0 
0.538041 0.0917674 0 
0.512605 0.115215 0 
0.512544 0.138965 0 
0.53782 0.115204 0 
0.537641 0.138961 0 
0.512518 0.163415 0 
0.512503 0.188056 0 
0.537568 0.163402 0 
0.537524 0.188031 0 
0.56438 0.0294367 0 
0.564959 0.0479983 0 
0.590799 0.0295633 0 
0.591708 0.0481871 0 
0.564225 0.0696527 0 
0.563488 0.0918466 0 
0.590316 0.0698392 0 
0.589013 0.0920175 0 
0.563083 0.115259 0 
0.562767 0.138989 0 
0.588392 0.115377 0 
0.587923 0.139048 0 
0.562631 0.16341 0 
0.562544 0.188021 0 
0.587709 0.163438 0 
0.587562 0.188024 0 
CELLS 64 128
1 0
1 1
1 2
1 3
1 4
1 5
1 6
1 7
1 8
1 9
1 10
1 11
1 12
1 13
1 14
1 15
1 16
1 17
1 18
1 19
1 20
1 21
1 22
1 23
1 24
1 25
1 26
1 27
1 28
1 29
1 30
1 31
1 32
1 33
1 34
1 35
1 36
1 37
1 38
1 39
1 40
1 41
1 42
1 43
1 44
1 45
1 46
1 47
1 48
1 49
1 50
1 51
1 52
1 53
1 54
1 55
1 56
1 57
1 58
1 59
1 60
1 61
1 62
1 63
CELL_TYPES 64
1
1
1
1
1
1
1
1
1
1
1
1
1
1
1
1
1
1
1
1
1
1
1
1
1
1
1
1
1
1
1
1
1
1
1
1
1
1
1
1
1
1
1
1
1
1
1
1
1
1
1
1
1
1
1
1
1
1
1
1
1
1
1
1
POINT_DATA 64
VECTORS displacement double
-0.00329913 -0.382936 0 
-0.0042079 -0.389312 0 
-0.00188054 -0.383063 0 
-0.00245918 -0.389501 0 
-0.00281554 -0.392658 0 
-0.00151253 -0.395477 0 
-0.00172545 -0.392844 0 
-0.000988489 -0.395648 0 
-0.000893965 -0.397105 0 
-0.000430201 -0.398415 0 
-0.000587344 -0.397225 0 
-0.000276328 -0.398478 0 
-0.000242802 -0.398967 0 
-0.000128294 -0.399306 0 
-0.000154 -0.399005 0 
-8.18122e-05 -0.399328 0 
-0.000871408 -0.383135 0 
-0.00117566 -0.389608 0 
-0.000290512 -0.383149 0 
-0.000392058 -0.389624 0 
-0.000878772 -0.392941 0 
-0.000543248 -0.395729 0 
-0.000293383 -0.39294 0 
-0.000181928 -0.395714 0 
-0.000325658 -0.397284 0 
-0.000150613 -0.398515 0 
-0.00011054 -0.397281 0 
-5.35271e-05 -0.398527 0 
-8.37786e-05 -0.399037 0 
-4.58811e-05 -0.399362 0 
-3.22866e-05 -0.399065 0 
-2.05326e-05 -0.399409 0 
0.000290279 -0.383149 0 
0.000391567 -0.389624 0 
0.000871221 -0.383136 0 
0.00117528 -0.389609 0 
0.000292074 -0.39294 0 
0.000179517 -0.395715 0 
0.000877789 -0.392943 0 
0.000541376 -0.395733 0 
0.000104704 -0.397285 0 
4.35248e-05 -0.398535 0 
0.000320166 -0.397296 0 
0.00014054 -0.398539 0 
1.82244e-05 -0.399085 0 
2.74255e-06 -0.399444 0 
6.77493e-05 -0.399098 0 
2.39348e-05 -0.399469 0 
0.00188042 -0.383063 0 
0.00245897 -0.389502 0 
0.00329912 -0.382937 0 
0.00420792 -0.389313 0 
0.00172499 -0.392847 0 
0.000987507 -0.395653 0 
0.00281578 -0.392661 0 
0.00151276 -0.395482 0 
0.000583071 -0.397241 0 
0.000267288 -0.398511 0 
0.000891757 -0.397123 0 
0.000423266 -0.398452 0 
0.000131366 -0.39909 0 
4.3835e-05 -0.399479 0 
0.000208935 -0.399062 0 
6.24227e-05 -0.399476 0 
VECTORS velocity double
-0.962972 -1.006 0 
-1.10297 -0.705563 0 
-0.435844 -1.06329 0 
-0.525232 -0.787492 0 
-0.655634 -1.38271 0 
-0.339414 -1.88685 0 
-0.345704 -1.467 0 
-0.202417 -1.96946 0 
-0.223937 -2.17056 0 
-0.130102 -2.43428 0 
-0.128291 -2.22782 0 
-0.0669981 -2.46344 0 
-0.0784104 -2.56795 0 
-0.0394456 -2.65706 0 
-0.0391835 -2.58426 0 
-0.0202839 -2.66468 0 
-0.126619 -1.09189 0 
-0.172932 -0.827135 0 
-0.0422293 -1.08958 0 
-0.0577047 -0.820151 0 
-0.140933 -1.50226 0 
-0.0998025 -2.00067 0 
-0.0471464 -1.48489 0 
-0.0335865 -1.97804 0 
-0.0603434 -2.25112 0 
-0.0270395 -2.47795 0 
-0.0209751 -2.23944 0 
-0.0105266 -2.47759 0 
-0.0153673 -2.59736 0 
-0.00887828 -2.67982 0 
-0.00707972 -2.60722 0 
-0.00526038 -2.70248 0 
0.0421496 -1.08963 0 
0.0575332 -0.820251 0 
0.126553 -1.09203 0 
0.172791 -0.827435 0 
0.0466774 -1.48516 0 
0.0326997 -1.97851 0 
0.140559 -1.50306 0 
0.0990949 -2.00207 0 
0.0185788 -2.24033 0 
0.00627768 -2.47939 0 
0.0583351 -2.2538 0 
0.0233731 -2.48336 0 
0.00141039 -2.61553 0 
-0.00151681 -2.71964 0 
0.0101023 -2.62229 0 
0.0023509 -2.73132 0 
0.435808 -1.06349 0 
0.52516 -0.787918 0 
0.96298 -1.00624 0 
1.10299 -0.706053 0 
0.345525 -1.4681 0 
0.202102 -1.9714 0 
0.655741 -1.38392 0 
0.3397 -1.88894 0 
0.127701 -2.23154 0 
0.0655767 -2.47089 0 
0.225772 -2.1746 0 
0.132567 -2.4422 0 
0.0313039 -2.61944 0 
0.00498973 -2.73796 0 
0.0649139 -2.60704 0 
0.00639398 -2.73956 0 
SCALARS mass double 1
LOOKUP_TABLE default
0.625
0.625
0.625
0.625
0.625
0.625
0.625
0.625
0.625
0.625
0.625
0.625
0.625
0.625
0.625
0.625
0.625
0.625
0.625
0.625
0.625
0.625
0.625
0.625
0.625
0.625
0.625
0.625
0.625
0.625
0.625
0.625
0.625
0.625
0.625
0.625
0.625
0.625
0.625
0.625
0.625
0.625
0.625
0.625
0.625
0.625
0.625
0.625
0.625
0.625
0.625
0.625
0.625
0.625
0.625
0.625
0.625
0.625
0.625
0.625
0.625
0.625
0.625
0.625
SCALARS volume double 1
LOOKUP_TABLE default
0.00040361
0.000574539
0.000401904
0.000573803
0.000567781
0.000585958
0.000568041
0.000586514
0.000595641
0.000603794
0.000597199
0.000604954
0.00061789
0.000619529
0.000618302
0.000619854
0.000388249
0.000552769
0.000388072
0.000553048
0.000557287
0.000583001
0.000557775
0.000583026
0.0005956
0.000604017
0.000595189
0.000603722
0.000617368
0.000619205
0.000616928
0.000618631
0.000388071
0.000553043
0.000388244
0.000552749
0.000557771
0.000583013
0.000557261
0.000582937
0.000595114
0.000603583
0.000595359
0.000603603
0.000616504
0.000618123
0.000616194
0.000617888
0.000401897
0.000573777
0.000403602
0.000574509
0.000568008
0.000586436
0.000567744
0.000585869
0.000596896
0.000604432
0.000595298
0.000603226
0.000616419
0.000617422
0.000615795
0.000616853
VECTORS momentum double
-0.601858 -0.628751 0 
-0.689353 -0.440977 0 
-0.272403 -0.664557 0 
-0.32827 -0.492182 0 
-0.409771 -0.864195 0 
-0.212134 -1.17928 0 
-0.216065 -0.916874 0 
-0.126511 -1.23091 0 
-0.139961 -1.3566 0 
-0.0813136 -1.52143 0 
-0.0801821 -1.39239 0 
-0.0418738 -1.53965 0 
-0.0490065 -1.60497 0 
-0.0246535 -1.66066 0 
-0.0244897 -1.61516 0 
-0.0126774 -1.66543 0 
-0.0791372 -0.682433 0 
-0.108082 -0.516959 0 
-0.0263933 -0.680989 0 
-0.0360654 -0.512595 0 
-0.0880832 -0.938912 0 
-0.0623766 -1.25042 0 
-0.0294665 -0.928057 0 
-0.0209915 -1.23628 0 
-0.0377146 -1.40695 0 
-0.0168997 -1.54872 0 
-0.0131095 -1.39965 0 
-0.00657913 -1.54849 0 
-0.00960456 -1.62335 0 
-0.00554893 -1.67489 0 
-0.00442482 -1.62951 0 
-0.00328774 -1.68905 0 
0.0263435 -0.681018 0 
0.0359583 -0.512657 0 
0.0790957 -0.682521 0 
0.107995 -0.517147 0 
0.0291734 -0.928223 0 
0.0204373 -1.23657 0 
0.0878496 -0.939411 0 
0.0619343 -1.25129 0 
0.0116118 -1.40021 0 
0.00392355 -1.54962 0 
0.0364594 -1.40863 0 
0.0146082 -1.5521 0 
0.000881491 -1.63471 0 
-0.000948009 -1.69978 0 
0.00631393 -1.63893 0 
0.00146931 -1.70708 0 
0.27238 -0.664684 0 
0.328225 -0.492449 0 
0.601862 -0.628901 0 
0.689372 -0.441283 0 
0.215953 -0.917565 0 
0.126314 -1.23212 0 
0.409838 -0.864952 0 
0.212313 -1.18058 0 
0.079813 -1.39472 0 
0.0409854 -1.54431 0 
0.141107 -1.35913 0 
0.0828545 -1.52638 0 
0.0195649 -1.63715 0 
0.00311858 -1.71123 0 
0.0405712 -1.6294 0 
0.00399624 -1.71223 0 
VECTORS body_force double
0 -9.81 0 
0 -9.81 0 
0 -9.81 0 
0 -9.81 0 
0 -9.81 0 
0 -9.81 0 
0 -9.81 0 
0 -9.81 0 
0 -9.81 0 
0 -9.81 0 
0 -9.81 0 
0 -9.81 0 
0 -9.81 0 
0 -9.81 0 
0 -9.81 0 
0 -9.81 0 
0 -9.81 0 
0 -9.81 0 
0 -9.81 0 
0 -9.81 0 
0 -9.81 0 
0 -9.81 0 
0 -9.81 0 
0 -9.81 0 
0 -9.81 0 
0 -9.81 0 
0 -9.81 0 
0 -9.81 0 
0 -9.81 0 
0 -9.81 0 
0 -9.81 0 
0 -9.81 0 
0 -9.81 0 
0 -9.81 0 
0 -9.81 0 
0 -9.81 0 
0 -9.81 0 
0 -9.81 0 
0 -9.81 0 
0 -9.81 0 
0 -9.81 0 
0 -9.81 0 
0 -9.81 0 
0 -9.81 0 
0 -9.81 0 
0 -9.81 0 
0 -9.81 0 
0 -9.81 0 
0 -9.81 0 
0 -9.81 0 
0 -9.81 0 
0 -9.81 0 
0 -9.81 0 
0 -9.81 0 
0 -9.81 0 
0 -9.81 0 
0 -9.81 0 
0 -9.81 0 
0 -9.81 0 
0 -9.81 0 
0 -9.81 0 
0 -9.81 0 
0 -9.81 0 
0 -9.81 0 
TENSORS cauchy_stress double
-20872 -2524.44 0
-2524.44 -63224.7 0
0 0 -25229

382.322 820.932 0
820.932 -16571.4 0
0 0 -4856.72

-21193.6 -1561.07 0
-1561.07 -63717.7 0
0 0 -25473.4

291.641 193.347 0
193.347 -16727.2 0
0 0 -4930.66

-2163.87 2033.6 0
2033.6 -16300.7 0
0 0 -5539.36

-2098.41 1051.06 0
1051.06 -10306 0
0 0 -3721.33

-2188.27 955.204 0
955.204 -16188.4 0
0 0 -5513

-2054.46 533.903 0
533.903 -10167.7 0
0 0 -3666.64

-1827.46 602.335 0
602.335 -7425.12 0
0 0 -2775.77

-1515.64 432.542 0
432.542 -5122.69 0
0 0 -1991.5

-1680.46 339.672 0
339.672 -7069.69 0
0 0 -2625.04

-1406.24 258.283 0
258.283 -4862.72 0
0 0 -1880.69

-386.654 131.674 0
131.674 -1813.47 0
0 0 -660.038

-364.077 107.787 0
107.787 -1326.75 0
0 0 -507.249

-348.405 61.1928 0
61.1928 -1723.57 0
0 0 -621.593

-333.949 55.1574 0
55.1574 -1256.14 0
0 0 -477.026

-25690.7 -641.525 0
-641.525 -65868.1 0
0 0 -27467.7

-4706.38 132.387 0
132.387 -18911.4 0
0 0 -7085.32

-25724.2 -234.79 0
-234.79 -65922.3 0
0 0 -27493.9

-4677.56 25.1394 0
25.1394 -18843.1 0
0 0 -7056.21

-4828.19 556.452 0
556.452 -17223.8 0
0 0 -6615.6

-2906.16 440.01 0
440.01 -10471.3 0
0 0 -4013.25

-4781.64 186.645 0
186.645 -17102.3 0
0 0 -6565.18

-2905.88 162.064 0
162.064 -10463.3 0
0 0 -4010.74

-2119.08 305.846 0
305.846 -7146.69 0
0 0 -2779.73

-1671.4 183.654 0
183.654 -4895.69 0
0 0 -1970.13

-2160 103.171 0
103.171 -7238.55 0
0 0 -2819.57

-1699.95 46.932 0
46.932 -4961.06 0
0 0 -1998.3

-550.498 20.2346 0
20.2346 -1812.37 0
0 0 -708.86

-459.466 -24.9041 0
-24.9041 -1331.94 0
0 0 -537.423

-591.645 -23.1049 0
-23.1049 -1908.3 0
0 0 -749.983

-512.978 -57.4818 0
-57.4818 -1456.88 0
0 0 -590.958

-25724.2 233.986 0
233.986 -65922.8 0
0 0 -27494.1

-4677.75 -26.9685 0
-26.9685 -18844.7 0
0 0 -7056.72

-25691.3 640.751 0
640.751 -65869.9 0
0 0 -27468.4

-4708.1 -133.992 0
-133.992 -18916.4 0
0 0 -7087.36

-4781.09 -190.379 0
-190.379 -17104.3 0
0 0 -6565.61

-2905.55 -168.674 0
-168.674 -10467.9 0
0 0 -4012.03

-4829.96 -559.82 0
-559.82 -17231.2 0
0 0 -6618.35

-2910.8 -446.406 0
-446.406 -10487.6 0
0 0 -4019.53

-2166.3 -122.277 0
-122.277 -7256.6 0
0 0 -2826.87

-1713.59 -78.5931 0
-78.5931 -4991.94 0
0 0 -2011.66

-2141.43 -325.417 0
-325.417 -7202.31 0
0 0 -2803.12

-1711.21 -216.385 0
-216.385 -4987.84 0
0 0 -2009.71

-637.411 -45.5731 0
-45.5731 -1994.76 0
0 0 -789.65

-573.221 -57.4101 0
-57.4101 -1554.63 0
0 0 -638.356

-666.358 -92.5443 0
-92.5443 -2062.52 0
0 0 -818.663

-595.096 -92.6449 0
-92.6449 -1605.85 0
0 0 -660.284

-21194.3 1560.78 0
1560.78 -63720.2 0
0 0 -25474.3

289.637 -193.878 0
-193.878 -16734.1 0
0 0 -4933.34

-20872.8 2524.21 0
2524.21 -63227.7 0
0 0 -25230.1

379.932 -820.978 0
-820.978 -16579.2 0
0 0 -4859.78

-2189.47 -956.185 0
-956.185 -16198.1 0
0 0 -5516.28

-2058.41 -536.422 0
-536.422 -10189.3 0
0 0 -3674.31

-2165.57 -2033.82 0
-2033.82 -16311.4 0
0 0 -5543.11

-2103.51 -1052.74 0
-1052.74 -10330.3 0
0 0 -3730.15

-1703.43 -348.734 0
-348.734 -7144.46 0
0 0 -2654.37

-1449.55 -273.762 0
-273.762 -4985.55 0
0 0 -1930.53

-1854.28 -609.922 0
-609.922 -7508.94 0
0 0 -2808.97

-1563.32 -451.694 0
-451.694 -5256.01 0
0 0 -2045.8

-558.809 -101.832 0
-101.832 -2099.92 0
0 0 -797.619

-646.496 -103.694 0
-103.694 -1699.57 0
0 0 -703.821

-616.836 -199.825 0
-199.825 -2236.43 0
0 0 -855.98

-699.497 -177.042 0
-177.042 -1823.84 0
0 0 -757

TENSORS velocity_gradient double
6.2154 -14.6673 0
-1.0642 -20.5811 0
0 0 0

9.2243 -4.6391 0
-1.64644 -19.0732 0
0 0 0

6.19461 -9.26134 0
-1.06064 -21.5067 0
0 0 0

9.21842 -3.18958 0
-1.6436 -19.6858 0
0 0 0

7.60751 8.39558 0
-1.826 -17.1518 0
0 0 0

4.75302 8.2363 0
-1.89237 -17.1304 0
0 0 0

7.62548 5.11825 0
-1.82557 -17.2289 0
0 0 0

4.76674 5.03998 0
-1.8928 -17.2307 0
0 0 0

3.07991 4.0567 0
-1.4713 -11.7151 0
0 0 0

1.86419 4.03815 0
-0.867896 -11.7059 0
0 0 0

3.08415 2.77714 0
-1.47341 -11.08 0
0 0 0

1.86628 2.76477 0
-0.868935 -11.0739 0
0 0 0

1.14032 1.22278 0
-0.535528 -3.39019 0
0 0 0

0.69237 1.22126 0
-0.354648 -3.38957 0
0 0 0

1.14076 0.769129 0
-0.535706 -3.20701 0
0 0 0

0.692613 0.768167 0
-0.354746 -3.20662 0
0 0 0

3.81671 -4.86098 0
-0.127345 -22.0538 0
0 0 0

5.71641 -1.77563 0
-0.187433 -20.0428 0
0 0 0

3.81536 -1.62176 0
-0.1273 -22.1619 0
0 0 0

5.71607 -0.597963 0
-0.187428 -20.0732 0
0 0 0

4.93714 2.56566 0
-0.138122 -17.2286 0
0 0 0

3.41234 2.547 0
-0.058643 -17.2277 0
0 0 0

4.93682 0.84805 0
-0.138105 -17.1391 0
0 0 0

3.41123 0.841846 0
-0.0585851 -17.1388 0
0 0 0

2.23318 1.59232 0
-0.111884 -10.8078 0
0 0 0

1.19677 1.58643 0
-0.216556 -10.8084 0
0 0 0

2.23293 0.507149 0
-0.11191 -10.9174 0
0 0 0

1.19704 0.505218 0
-0.216529 -10.9176 0
0 0 0

0.646059 0.40144 0
-0.428315 -3.25024 0
0 0 0

0.368502 0.401127 0
-0.697637 -3.25055 0
0 0 0

0.646246 0.120746 0
-0.428133 -3.52261 0
0 0 0

0.368827 0.120648 0
-0.697321 -3.5227 0
0 0 0

3.81626 1.61784 0
0.1217 -22.1643 0
0 0 0

5.718 0.587802 0
0.176968 -20.0784 0
0 0 0

3.8176 4.85784 0
0.121743 -22.061 0
0 0 0

5.71833 1.76829 0
0.176967 -20.0584 0
0 0 0

4.94257 -0.867017 0
0.114099 -17.148 0
0 0 0

3.42152 -0.860786 0
0.018794 -17.1476 0
0 0 0

4.94295 -2.57955 0
0.114122 -17.2553 0
0 0 0

3.42274 -2.56091 0
0.0188701 -17.2541 0
0 0 0

2.24102 -0.580577 0
-0.0180008 -10.9795 0
0 0 0

1.20036 -0.578532 0
-0.0318183 -10.9794 0
0 0 0

2.24148 -1.67086 0
-0.0179947 -10.9939 0
0 0 0

1.20051 -1.66482 0
-0.0318164 -10.9939 0
0 0 0

0.626351 -0.17669 0
-0.162282 -3.75705 0
0 0 0

0.315931 -0.17655 0
-0.356422 -3.75696 0
0 0 0

0.626461 -0.490877 0
-0.162213 -3.95355 0
0 0 0

0.316127 -0.49048 0
-0.356299 -3.9533 0
0 0 0

6.19644 9.25945 0
1.05874 -21.5169 0
0 0 0

9.22241 3.1869 0
1.64028 -19.7077 0
0 0 0

6.21723 14.6671 0
1.0623 -20.593 0
0 0 0

9.22832 4.64271 0
1.6431 -19.098 0
0 0 0

7.63752 -5.12408 0
1.81928 -17.2658 0
0 0 0

4.78829 -5.04602 0
1.88313 -17.2676 0
0 0 0

7.61963 -8.3908 0
1.81968 -17.1926 0
0 0 0

4.77453 -8.23342 0
1.8827 -17.1738 0
0 0 0

3.12124 -2.84863 0
1.43836 -11.3449 0
0 0 0

1.92159 -2.83628 0
0.800055 -11.3383 0
0 0 0

3.1171 -4.10963 0
1.43615 -12.0158 0
0 0 0

1.91962 -4.09117 0
0.799003 -12.006 0
0 0 0

1.03223 -1.00907 0
0.338294 -4.23484 0
0 0 0

0.32177 -1.00727 0
-0.0220294 -4.23392 0
0 0 0

1.03168 -1.72919 0
0.338012 -4.60006 0
0 0 0

0.321655 -1.7262 0
-0.0220875 -4.59854 0
0 0 0

SCALARS active double 1
LOOKUP_TABLE default
1
1
1
1
1
1
1
1
1
1
1
1
1
1
1
1
1
1
1
1
1
1
1
1
1
1
1
1
1
1
1
1
1
1
1
1
1
1
1
1
1
1
1
1
1
1
1
1
1
1
1
1
1
1
1
1
1
1
1
1
1
1
1
1
SCALARS extent double 1
LOOKUP_TABLE default
0.0125
0.0125
0.0125
0.0125
0.0125
0.0125
0.0125
0.0125
0.0125
0.0125
0.0125
0.0125
0.0125
0.0125
0.0125
0.0125
0.0125
0.0125
0.0125
0.0125
0.0125
0.0125
0.0125
0.0125
0.0125
0.0125
0.0125
0.0125
0.0125
0.0125
0.0125
0.0125
0.0125
0.0125
0.0125
0.0125
0.0125
0.0125
0.0125
0.0125
0.0125
0.0125
0.0125
0.0125
0.0125
0.0125
0.0125
0.0125
0.0125
0.0125
0.0125
0.0125
0.0125
0.0125
0.0125
0.0125
0.0125
0.0125
0.0125
0.0125
0.0125
0.0125
0.0125
0.0125
SCALARS pressure double 1
LOOKUP_TABLE default
36441.9
7015.26
36794.9
7122.07
8001.3
5375.25
7963.23
5296.26
4009.45
2876.61
3791.73
2716.55
953.388
732.694
897.856
689.038
39675.5
10234.4
39713.5
10192.3
9555.87
5796.92
9483.04
5793.29
4015.17
2845.74
4072.71
2886.44
1023.91
776.277
1083.31
853.606
39713.7
10193
39676.5
10237.3
9483.66
5795.16
9559.83
5805.99
4083.25
2905.73
4048.95
2902.92
1140.61
922.07
1182.51
953.743
36796.3
7125.94
36443.5
7019.68
7967.96
5307.34
8006.71
5388
3834.08
2788.54
4057.4
2955.04
1152.12
1016.63
1236.42
1093.45
SCALARS density double 1
LOOKUP_TABLE default
1548.52
1087.83
1555.1
1089.22
1100.78
1066.63
1100.27
1065.62
1049.29
1035.12
1046.55
1033.14
1011.51
1008.83
1010.83
1008.3
1609.79
1130.67
1610.53
1130.1
1121.5
1072.04
1120.52
1071.99
1049.36
1034.74
1050.09
1035.24
1012.36
1009.36
1013.08
1010.3
1610.53
1130.11
1609.81
1130.71
1120.53
1072.02
1121.56
1072.16
1050.22
1035.48
1049.79
1035.45
1013.78
1011.13
1014.29
1011.51
1555.12
1089.27
1548.56
1087.89
1100.34
1065.76
1100.85
1066.79
1047.08
1034.03
1049.89
1036.1
1013.92
1012.27
1014.95
1013.21
