# vtk DataFile Version 3.0
Frame: 29, Time: 0.484
ASCII
DATASET UNSTRUCTURED_GRID
POINTS 64 double
0.92753 0.423643 0 
0.930615 0.398026 0 
0.901513 0.421123 0 
0.90403 0.394213 0 
0.934651 0.373372 0 
0.939499 0.348312 0 
0.908676 0.369213 0 
0.91331 0.343809 0 
0.942494 0.32365 0 
0.946543 0.298703 0 
0.917098 0.318217 0 
0.922922 0.293413 0 
0.952537 0.275215 0 
0.957949 0.253865 0 
0.929721 0.268328 0 
0.933516 0.242238 0 
0.876078 0.416004 0 
0.879128 0.390536 0 
0.850931 0.412032 0 
0.854026 0.386412 0 
0.883467 0.365521 0 
0.888787 0.340694 0 
0.857452 0.361498 0 
0.864597 0.335678 0 
0.893461 0.314727 0 
0.900083 0.289601 0 
0.87048 0.309853 0 
0.876462 0.284304 0 
0.905653 0.263202 0 
0.908165 0.236013 0 
0.881706 0.258383 0 
0.884951 0.230786 0 
0.826185 0.407728 0 
0.827775 0.38268 0 
0.800544 0.40267 0 
0.803246 0.376813 0 
0.833717 0.357616 0 
0.840011 0.330301 0 
0.809998 0.350951 0 
0.81487 0.326152 0 
0.845709 0.304225 0 
0.851963 0.278919 0 
0.821065 0.300073 0 
0.827119 0.274957 0 
0.856885 0.25318 0 
0.860819 0.226686 0 
0.831503 0.24929 0 
0.835457 0.22217 0 
0.775448 0.396273 0 
0.779767 0.371074 0 
0.748677 0.391599 0 
0.753932 0.36651 0 
0.785287 0.345434 0 
0.790507 0.319209 0 
0.760277 0.341021 0 
0.765569 0.314615 0 
0.796402 0.293554 0 
0.801897 0.268796 0 
0.770532 0.289772 0 
0.775426 0.263856 0 
0.806254 0.243796 0 
0.812055 0.218102 0 
0.781288 0.23807 0 
0.789019 0.212619 0 
CELLS 64 128
1 0
1 1
1 2
1 3
1 4
1 5
1 6
1 7
1 8
1 9
1 10
1 11
1 12
1 13
1 14
1 15
1 16
1 17
1 18
1 19
1 20
1 21
1 22
1 23
1 24
1 25
1 26
1 27
1 28
1 29
1 30
1 31
1 32
1 33
1 34
1 35
1 36
1 37
1 38
1 39
1 40
1 41
1 42
1 43
1 44
1 45
1 46
1 47
1 48
1 49
1 50
1 51
1 52
1 53
1 54
1 55
1 56
1 57
1 58
1 59
1 60
1 61
1 62
1 63
CELL_TYPES 64
1
1
1
1
1
1
1
1
1
1
1
1
1
1
1
1
1
1
1
1
1
1
1
1
1
1
1
1
1
1
1
1
1
1
1
1
1
1
1
1
1
1
1
1
1
1
1
1
1
1
1
1
1
1
1
1
1
1
1
1
1
1
1
1
POINT_DATA 64
VECTORS displacement double
0.41503 -0.188857 0 
0.418115 -0.239474 0 
0.364013 -0.191377 0 
0.36653 -0.243287 0 
0.422151 -0.289128 0 
0.426999 -0.339188 0 
0.371176 -0.293287 0 
0.37581 -0.343691 0 
0.429994 -0.38885 0 
0.434043 -0.438797 0 
0.379598 -0.394283 0 
0.385422 -0.444087 0 
0.440037 -0.487285 0 
0.445449 -0.533635 0 
0.392221 -0.494172 0 
0.396016 -0.545262 0 
0.313578 -0.196496 0 
0.316628 -0.246964 0 
0.263431 -0.200468 0 
0.266526 -0.251088 0 
0.320967 -0.296979 0 
0.326287 -0.346806 0 
0.269952 -0.301002 0 
0.277097 -0.351822 0 
0.330961 -0.397773 0 
0.337583 -0.447899 0 
0.28298 -0.402647 0 
0.288962 -0.453196 0 
0.343153 -0.499298 0 
0.345665 -0.551487 0 
0.294206 -0.504117 0 
0.297451 -0.556714 0 
0.213685 -0.204772 0 
0.215275 -0.25482 0 
0.163044 -0.20983 0 
0.165746 -0.260687 0 
0.221217 -0.304884 0 
0.227511 -0.357199 0 
0.172498 -0.311549 0 
0.17737 -0.361348 0 
0.233209 -0.408275 0 
0.239463 -0.458581 0 
0.183565 -0.412427 0 
0.189619 -0.462543 0 
0.244385 -0.50932 0 
0.248319 -0.560814 0 
0.194003 -0.51321 0 
0.197957 -0.56533 0 
0.112948 -0.216227 0 
0.117267 -0.266426 0 
0.0611772 -0.220901 0 
0.066432 -0.27099 0 
0.122787 -0.317066 0 
0.128007 -0.368291 0 
0.0727772 -0.321479 0 
0.0780694 -0.372885 0 
0.133902 -0.418946 0 
0.139397 -0.468704 0 
0.0830316 -0.422728 0 
0.0879257 -0.473644 0 
0.143754 -0.518704 0 
0.149555 -0.569398 0 
0.0937883 -0.52443 0 
0.101519 -0.574881 0 
VECTORS velocity double
3.77764 -1.40348 0 
3.07724 -1.78722 0 
4.11196 0.017855 0 
2.39088 -0.013387 0 
2.86884 -1.38074 0 
2.37507 -1.59255 0 
2.02709 0.133867 0 
1.68802 -0.60569 0 
1.44408 -1.52501 0 
0.400104 -1.52597 0 
0.947847 -0.523331 0 
0.0248789 -0.948154 0 
0.630366 -1.08086 0 
0.436594 -1.48536 0 
0.0756925 -0.832656 0 
-0.260428 -0.800039 0 
3.92807 0.0844265 0 
2.34189 -0.481421 0 
3.37526 0.500449 0 
2.39287 -0.325376 0 
2.49397 0.053631 0 
2.26527 -0.696121 0 
2.39639 -0.106911 0 
1.92448 -0.213168 0 
1.39642 -0.473718 0 
0.882036 -0.702416 0 
1.04409 -0.324912 0 
0.821805 -0.500681 0 
0.730045 -0.804874 0 
-0.671088 -1.31767 0 
1.02037 -0.555624 0 
-0.59502 -1.16294 0 
3.44076 0.702039 0 
2.39622 0.212951 0 
3.35774 0.831181 0 
2.13109 0.555287 0 
2.69979 0.542873 0 
2.05272 0.917574 0 
2.45616 0.699305 0 
1.80585 0.931431 0 
1.30836 0.319684 0 
0.702768 -0.291075 0 
0.995486 -0.0564567 0 
0.53443 -0.125017 0 
0.586575 -0.368714 0 
-0.24414 -0.490975 0 
0.0221384 0.184423 0 
-1.13104 -0.19994 0 
3.68163 0.937608 0 
2.45782 0.360727 0 
3.06842 1.94823 0 
1.80283 1.6039 0 
2.68608 0.700697 0 
1.91422 0.953053 0 
2.06605 1.84191 0 
1.06892 1.93436 0 
1.19926 0.68082 0 
0.943655 0.570303 0 
0.596874 1.74469 0 
0.426797 1.60916 0 
0.657652 0.70341 0 
-0.737397 -0.237071 0 
-0.503465 1.99109 0 
-0.547601 1.48822 0 
SCALARS mass double 1
LOOKUP_TABLE default
0.625
0.625
0.625
0.625
0.625
0.625
0.625
0.625
0.625
0.625
0.625
0.625
0.625
0.625
0.625
0.625
0.625
0.625
0.625
0.625
0.625
0.625
0.625
0.625
0.625
0.625
0.625
0.625
0.625
0.625
0.625
0.625
0.625
0.625
0.625
0.625
0.625
0.625
0.625
0.625
0.625
0.625
0.625
0.625
0.625
0.625
0.625
0.625
0.625
0.625
0.625
0.625
0.625
0.625
0.625
0.625
0.625
0.625
0.625
0.625
0.625
0.625
0.625
0.625
SCALARS volume double 1
LOOKUP_TABLE default
0.000617717
0.000633354
0.000638403
0.000650642
0.000630507
0.000625003
0.000627567
0.000642904
0.000621467
0.000598005
0.000611496
0.000571468
0.000576782
0.000518927
0.000591476
0.000640906
0.000637137
0.000611594
0.000640028
0.000619671
0.000617889
0.000617953
0.000633212
0.000637401
0.000573237
0.000588285
0.000635167
0.000665884
0.000622906
0.000625737
0.000639728
0.000601084
0.00062471
0.000626843
0.000626245
0.000631394
0.000621832
0.000661872
0.000632998
0.000646995
0.000628234
0.000614219
0.000626791
0.000606898
0.000649702
0.000620589
0.000661124
0.000622271
0.000637563
0.000633726
0.000641974
0.000623232
0.000635146
0.00061867
0.000632305
0.000629277
0.000650471
0.000643441
0.00064481
0.000630234
0.000626147
0.000609305
0.000635171
0.000625663
VECTORS momentum double
2.36102 -0.877172 0 
1.92328 -1.11701 0 
2.56998 0.0111594 0 
1.4943 -0.00836686 0 
1.79303 -0.86296 0 
1.48442 -0.995343 0 
1.26693 0.0836669 0 
1.05501 -0.378556 0 
0.902553 -0.953129 0 
0.250065 -0.953732 0 
0.592405 -0.327082 0 
0.0155493 -0.592596 0 
0.393979 -0.675538 0 
0.272871 -0.928352 0 
0.0473078 -0.52041 0 
-0.162767 -0.500025 0 
2.45504 0.0527665 0 
1.46368 -0.300888 0 
2.10954 0.31278 0 
1.49554 -0.20336 0 
1.55873 0.0335194 0 
1.41579 -0.435076 0 
1.49774 -0.0668192 0 
1.2028 -0.13323 0 
0.872763 -0.296074 0 
0.551272 -0.43901 0 
0.652558 -0.20307 0 
0.513628 -0.312925 0 
0.456278 -0.503046 0 
-0.41943 -0.823545 0 
0.637729 -0.347265 0 
-0.371888 -0.726835 0 
2.15047 0.438774 0 
1.49764 0.133094 0 
2.09859 0.519488 0 
1.33193 0.347054 0 
1.68737 0.339296 0 
1.28295 0.573484 0 
1.5351 0.437066 0 
1.12866 0.582144 0 
0.817725 0.199802 0 
0.43923 -0.181922 0 
0.622179 -0.0352854 0 
0.334019 -0.0781359 0 
0.366609 -0.230446 0 
-0.152588 -0.306859 0 
0.0138365 0.115264 0 
-0.706901 -0.124963 0 
2.30102 0.586005 0 
1.53614 0.225455 0 
1.91776 1.21765 0 
1.12677 1.00244 0 
1.6788 0.437936 0 
1.19639 0.595658 0 
1.29128 1.15119 0 
0.668074 1.20898 0 
0.749537 0.425513 0 
0.589784 0.356439 0 
0.373047 1.09043 0 
0.266748 1.00573 0 
0.411033 0.439631 0 
-0.460873 -0.14817 0 
-0.314665 1.24443 0 
-0.34225 0.930135 0 
VECTORS body_force double
0 -9.81 0 
0 -9.81 0 
0 -9.81 0 
0 -9.81 0 
0 -9.81 0 
0 -9.81 0 
0 -9.81 0 
0 -9.81 0 
0 -9.81 0 
0 -9.81 0 
0 -9.81 0 
0 -9.81 0 
0 -9.81 0 
0 -9.81 0 
0 -9.81 0 
0 -9.81 0 
0 -9.81 0 
0 -9.81 0 
0 -9.81 0 
0 -9.81 0 
0 -9.81 0 
0 -9.81 0 
0 -9.81 0 
0 -9.81 0 
0 -9.81 0 
0 -9.81 0 
0 -9.81 0 
0 -9.81 0 
0 -9.81 0 
0 -9.81 0 
0 -9.81 0 
0 -9.81 0 
0 -9.81 0 
0 -9.81 0 
0 -9.81 0 
0 -9.81 0 
0 -9.81 0 
0 -9.81 0 
0 -9.81 0 
0 -9.81 0 
0 -9.81 0 
0 -9.81 0 
0 -9.81 0 
0 -9.81 0 
0 -9.81 0 
0 -9.81 0 
0 -9.81 0 
0 -9.81 0 
0 -9.81 0 
0 -9.81 0 
0 -9.81 0 
0 -9.81 0 
0 -9.81 0 
0 -9.81 0 
0 -9.81 0 
0 -9.81 0 
0 -9.81 0 
0 -9.81 0 
0 -9.81 0 
0 -9.81 0 
0 -9.81 0 
0 -9.81 0 
0 -9.81 0 
0 -9.81 0 
TENSORS cauchy_stress double
-1124.66 -380.589 0
-380.589 -1129.55 0
0 0 -676.262

1162.72 973.636 0
973.636 1390.78 0
0 0 766.052

1418.15 -2261.81 0
-2261.81 2662.39 0
0 0 1224.16

800.712 3866.91 0
3866.91 6931.58 0
0 0 2319.69

1121.55 1995.5 0
1995.5 565.435 0
0 0 506.096

1871.58 2852.37 0
2852.37 -1870.58 0
0 0 0.298266

2505.71 -4135.76 0
-4135.76 -1717.41 0
0 0 236.491

2123.25 1292.61 0
1292.61 3308.33 0
0 0 1629.47

-1686.42 2599 0
2599 596.204 0
0 0 -327.064

-5553.63 1713.04 0
1713.04 -2937.09 0
0 0 -2547.21

-2739.49 817.723 0
817.723 -1461.19 0
0 0 -1260.21

-12588.8 -1846.76 0
-1846.76 -4631.07 0
0 0 -5165.95

-13197.4 8964.63 0
8964.63 -2242.47 0
0 0 -4631.95

-31294.9 28085.3 0
28085.3 -4472.15 0
0 0 -10730.1

-9350.56 762.166 0
762.166 -1251.53 0
0 0 -3180.63

4314.55 693.754 0
693.754 518.37 0
0 0 1449.88

2605.28 95.2058 0
95.2058 1093.39 0
0 0 1109.6

-3170.84 594.987 0
594.987 -998.84 0
0 0 -1250.9

1162.26 -684.677 0
-684.677 3406.89 0
0 0 1370.75

1711.58 1258.85 0
1258.85 -3358.19 0
0 0 -493.983

1928.52 -932.173 0
-932.173 -4128.97 0
0 0 -660.136

-4452.8 1245.22 0
1245.22 2272.18 0
0 0 -654.188

254.477 -1261 0
-1261 2255.75 0
0 0 753.069

1921.94 -3666.75 0
-3666.75 1856.27 0
0 0 1133.46

-13159.7 -1251.88 0
-1251.88 -3465.77 0
0 0 -4987.63

-8136.53 -8587.08 0
-8587.08 -3505.83 0
0 0 -3492.71

-449.89 -2852.83 0
-2852.83 3553 0
0 0 930.932

5662.39 -1399.78 0
-1399.78 6522.86 0
0 0 3655.58

-5132.24 1051.64 0
1051.64 4486.8 0
0 0 -193.632

-2952.95 1469.99 0
1469.99 3179.66 0
0 0 68.0118

-1598.46 1778.1 0
1778.1 6077.66 0
0 0 1343.76

-9313.31 -2242.72 0
-2242.72 1809.99 0
0 0 -2251

211.787 70.6605 0
70.6605 -300.922 0
0 0 -26.7403

742.31 2831.65 0
2831.65 -176.135 0
0 0 169.852

-165.28 1296.24 0
1296.24 548.052 0
0 0 114.831

-3769.33 -546.059 0
-546.059 5726.83 0
0 0 587.249

-4170.63 -6936.55 0
-6936.55 3193.29 0
0 0 -293.204

2824.81 -2287.59 0
-2287.59 8198.33 0
0 0 3306.94

808.169 2076.81 0
2076.81 1637.25 0
0 0 733.627

5037.72 2256.45 0
2256.45 1613.55 0
0 0 1995.38

230.618 -4117.12 0
-4117.12 761.896 0
0 0 297.754

-3561.91 -454.371 0
-454.371 215.675 0
0 0 -1003.87

-5055.4 943.55 0
943.55 5605.64 0
0 0 165.071

-1721.09 53.7404 0
53.7404 -3930.9 0
0 0 -1695.6

1920.93 996.142 0
996.142 5533.2 0
0 0 2236.24

-462.311 -502.435 0
-502.435 -899.787 0
0 0 -408.629

3989.15 -2238.05 0
-2238.05 6816.53 0
0 0 3241.7

-5374.38 -2395.52 0
-2395.52 4532.77 0
0 0 -252.483

5560.24 -570.075 0
-570.075 -1733.16 0
0 0 1148.12

2058.94 -2166.79 0
-2166.79 607.265 0
0 0 799.861

2408.62 133.295 0
133.295 2744.35 0
0 0 1545.89

-1735.8 1724.28 0
1724.28 1190.89 0
0 0 -163.471

309.925 -1458.89 0
-1458.89 2786.85 0
0 0 929.032

-3770.61 -4582.53 0
-4582.53 1812.97 0
0 0 -587.292

228.531 -1266.61 0
-1266.61 2006.2 0
0 0 670.419

-961.242 892.165 0
892.165 2272.78 0
0 0 393.462

5292.39 -3183.95 0
-3183.95 2389.37 0
0 0 2304.53

4498.18 1545.06 0
1545.06 1093.96 0
0 0 1677.64

332.52 1967.65 0
1967.65 5668.2 0
0 0 1800.22

1217.17 1038.23 0
1038.23 386.652 0
0 0 481.146

1112.77 1059.26 0
1059.26 -760.103 0
0 0 105.801

-5865.11 879.099 0
879.099 974.3 0
0 0 -1467.24

-1491.7 2568.31 0
2568.31 4596 0
0 0 931.29

-582.808 -1551.15 0
-1551.15 786.588 0
0 0 61.1341

TENSORS velocity_gradient double
-0.808739 17.2897 0
-18.1272 0.108165 0
0 0 0

1.33495 18.3146 0
-19.9619 -0.00340207 0
0 0 0

1.26148 19.2626 0
-14.5398 -1.71589 0
0 0 0

0.835091 18.0252 0
-16.4295 1.01549 0
0 0 0

0.514301 19.5491 0
-18.7773 -0.618079 0
0 0 0

-0.910209 23.5175 0
-16.8926 -1.20856 0
0 0 0

0.282121 18.2544 0
-18.4747 1.06968 0
0 0 0

-1.28345 23.6327 0
-16.386 2.15684 0
0 0 0

-3.25844 26.9649 0
-13.6544 -1.91887 0
0 0 0

-6.39484 17.2441 0
-4.5215 -1.70557 0
0 0 0

-3.84204 24.4015 0
-12.8468 1.62848 0
0 0 0

-4.80247 12.6075 0
-9.49228 1.60479 0
0 0 0

-6.48466 7.34863 0
12.7969 -1.3632 0
0 0 0

-5.42972 6.1004 0
21.9 -1.38343 0
0 0 0

-0.961068 10.9076 0
-6.4205 0.773624 0
0 0 0

3.10132 6.32942 0
-3.66669 0.275937 0
0 0 0

1.74063 17.4817 0
-12.101 -0.509005 0
0 0 0

-0.388301 16.1039 0
-11.1462 1.39637 0
0 0 0

1.15428 14.985 0
-10.5822 0.809173 0
0 0 0

-0.924906 14.2859 0
-11.0082 1.15164 0
0 0 0

-2.32354 16.4728 0
-11.2333 1.41297 0
0 0 0

-3.66173 22.633 0
-11.5076 3.52251 0
0 0 0

-2.58551 14.4831 0
-11.3592 1.2851 0
0 0 0

-3.72941 22.3232 0
-11.6369 2.93065 0
0 0 0

-3.99269 22.7007 0
-12.1399 3.65184 0
0 0 0

-4.00339 15.197 0
-10.9004 4.05589 0
0 0 0

-4.05856 22.4063 0
-12.2657 3.08945 0
0 0 0

-3.59136 16.4479 0
-12.3933 4.56173 0
0 0 0

-0.336894 14.6122 0
-6.26256 3.66575 0
0 0 0

4.07236 10.211 0
-3.30744 1.712 0
0 0 0

-2.5854 16.2258 0
-12.1911 4.51709 0
0 0 0

-0.155614 13.1495 0
-12.6268 1.76631 0
0 0 0

0.317013 11.1579 0
-9.92897 1.15748 0
0 0 0

-1.32835 13.3996 0
-11.0436 -0.364501 0
0 0 0

-0.415704 9.82319 0
-12.6191 -0.079709 0
0 0 0

-0.101943 13.0508 0
-12.4354 -1.72682 0
0 0 0

-1.98888 13.5658 0
-12.7165 0.0564819 0
0 0 0

-2.38332 22.0401 0
-14.5085 1.84537 0
0 0 0

-2.12476 17.1213 0
-13.179 -0.873452 0
0 0 0

-2.42912 21.7853 0
-14.8042 0.200158 0
0 0 0

-2.67614 21.3711 0
-15.997 2.58324 0
0 0 0

-2.71156 17.4214 0
-14.6882 4.53196 0
0 0 0

-2.50774 20.2491 0
-16.5552 1.54185 0
0 0 0

-1.53344 18.5292 0
-18.5197 2.86407 0
0 0 0

-2.27072 17.0094 0
-12.1962 3.89701 0
0 0 0

0.338996 15.8557 0
-12.7473 1.10681 0
0 0 0

-0.541242 17.5873 0
-20.3818 1.59031 0
0 0 0

-0.487328 17.0476 0
-21.2388 0.430076 0
0 0 0

0.0658649 14.2965 0
-14.0872 -1.31565 0
0 0 0

2.05617 14.5339 0
-13.4353 -1.34592 0
0 0 0

-2.98936 16.7354 0
-11.5494 -0.87131 0
0 0 0

0.36934 16.4376 0
-13.0317 -0.780301 0
0 0 0

3.55786 21.0811 0
-13.2622 -1.86618 0
0 0 0

3.35303 21.5523 0
-15.1331 -1.46688 0
0 0 0

3.546 21.2769 0
-13.5723 -3.69439 0
0 0 0

3.30813 21.3294 0
-15.4962 -3.26941 0
0 0 0

2.26566 19.5034 0
-17.048 0.365114 0
0 0 0

0.070115 19.4738 0
-19.0342 0.843299 0
0 0 0

2.77672 18.6488 0
-17.3815 -1.68255 0
0 0 0

1.85356 18.8404 0
-19.4392 -1.25548 0
0 0 0

-0.410975 16.9588 0
-20.6821 -0.343741 0
0 0 0

-0.500454 16.9805 0
-21.3588 -0.183298 0
0 0 0

0.651068 15.8659 0
-20.1202 -0.0450186 0
0 0 0

-0.805524 16.3346 0
-19.4954 -0.246059 0
0 0 0

SCALARS active double 1
LOOKUP_TABLE default
1
1
1
1
1
1
1
1
1
1
1
1
1
1
1
1
1
1
1
1
1
1
1
1
1
1
1
1
1
1
1
1
1
1
1
1
1
1
1
1
1
1
1
1
1
1
1
1
1
1
1
1
1
1
1
1
1
1
1
1
1
1
1
1
SCALARS extent double 1
LOOKUP_TABLE default
0.0125
0.0125
0.0125
0.0125
0.0125
0.0125
0.0125
0.0125
0.0125
0.0125
0.0125
0.0125
0.0125
0.0125
0.0125
0.0125
0.0125
0.0125
0.0125
0.0125
0.0125
0.0125
0.0125
0.0125
0.0125
0.0125
0.0125
0.0125
0.0125
0.0125
0.0125
0.0125
0.0125
0.0125
0.0125
0.0125
0.0125
0.0125
0.0125
0.0125
0.0125
0.0125
0.0125
0.0125
0.0125
0.0125
0.0125
0.0125
0.0125
0.0125
0.0125
0.0125
0.0125
0.0125
0.0125
0.0125
0.0125
0.0125
0.0125
0.0125
0.0125
0.0125
0.0125
0.0125
SCALARS pressure double 1
LOOKUP_TABLE default
976.823
-1106.52
-1768.23
-3350.66
-731.028
-0.430829
-341.598
-2353.68
472.425
3679.31
1820.3
7461.93
6690.59
15499
4594.24
-2094.26
-1602.76
1806.86
-1979.97
713.531
953.529
944.938
-1087.77
-1637.23
7204.35
5045.02
-1344.68
-5280.28
279.69
-98.2393
-1940.99
3251.44
38.6249
-245.342
-165.868
-848.249
423.517
-4776.7
-1059.68
-2882.22
-430.089
1450.03
-238.435
2449.2
-3230.12
590.243
-4682.46
364.697
-1658.4
-1155.35
-2232.95
236.125
-1341.93
848.31
-968.382
-568.335
-3328.76
-2423.26
-2600.31
-694.988
-152.823
2119.35
-1345.2
-88.3048
SCALARS density double 1
LOOKUP_TABLE default
1011.79
986.81
979.005
960.59
991.266
999.995
995.909
972.151
1005.69
1045.14
1022.08
1093.67
1083.6
1204.41
1056.68
975.182
980.951
1021.92
976.52
1008.6
1011.51
1011.4
987.032
980.545
1090.3
1062.41
983.993
938.602
1003.36
998.822
976.977
1039.79
1000.46
997.06
998.012
989.873
1005.1
944.292
987.364
966.005
994.852
1017.55
997.143
1029.83
961.98
1007.11
945.36
1004.39
980.296
986.231
973.56
1002.84
984.026
1010.23
988.447
993.203
960.842
971.34
969.278
991.695
998.168
1025.76
983.987
998.941
