# vtk DataFile Version 3.0
Frame: 2, Time: 0.034
ASCII
DATASET UNSTRUCTURED_GRID
POINTS 64 double
0.4125 0.40632 0 
0.4125 0.43132 0 
0.4375 0.40632 0 
0.4375 0.43132 0 
0.4125 0.45632 0 
0.4125 0.48132 0 
0.4375 0.45632 0 
0.4375 0.48132 0 
0.4125 0.50632 0 
0.4125 0.53132 0 
0.4375 0.50632 0 
0.4375 0.53132 0 
0.4125 0.55632 0 
0.4125 0.58132 0 
0.4375 0.55632 0 
0.4375 0.58132 0 
0.4625 0.40632 0 
0.4625 0.43132 0 
0.4875 0.40632 0 
0.4875 0.43132 0 
0.4625 0.45632 0 
0.4625 0.48132 0 
0.4875 0.45632 0 
0.4875 0.48132 0 
0.4625 0.50632 0 
0.4625 0.53132 0 
0.4875 0.50632 0 
0.4875 0.53132 0 
0.4625 0.55632 0 
0.4625 0.58132 0 
0.4875 0.55632 0 
0.4875 0.58132 0 
0.5125 0.40632 0 
0.5125 0.43132 0 
0.5375 0.40632 0 
0.5375 0.43132 0 
0.5125 0.45632 0 
0.5125 0.48132 0 
0.5375 0.45632 0 
0.5375 0.48132 0 
0.5125 0.50632 0 
0.5125 0.53132 0 
0.5375 0.50632 0 
0.5375 0.53132 0 
0.5125 0.55632 0 
0.5125 0.58132 0 
0.5375 0.55632 0 
0.5375 0.58132 0 
0.5625 0.40632 0 
0.5625 0.43132 0 
0.5875 0.40632 0 
0.5875 0.43132 0 
0.5625 0.45632 0 
0.5625 0.48132 0 
0.5875 0.45632 0 
0.5875 0.48132 0 
0.5625 0.50632 0 
0.5625 0.53132 0 
0.5875 0.50632 0 
0.5875 0.53132 0 
0.5625 0.55632 0 
0.5625 0.58132 0 
0.5875 0.55632 0 
0.5875 0.58132 0 
CELLS 64 128
1 0
1 1
1 2
1 3
1 4
1 5
1 6
1 7
1 8
1 9
1 10
1 11
1 12
1 13
1 14
1 15
1 16
1 17
1 18
1 19
1 20
1 21
1 22
1 23
1 24
1 25
1 26
1 27
1 28
1 29
1 30
1 31
1 32
1 33
1 34
1 35
1 36
1 37
1 38
1 39
1 40
1 41
1 42
1 43
1 44
1 45
1 46
1 47
1 48
1 49
1 50
1 51
1 52
1 53
1 54
1 55
1 56
1 57
1 58
1 59
1 60
1 61
1 62
1 63
CELL_TYPES 64
1
1
1
1
1
1
1
1
1
1
1
1
1
1
1
1
1
1
1
1
1
1
1
1
1
1
1
1
1
1
1
1
1
1
1
1
1
1
1
1
1
1
1
1
1
1
1
1
1
1
1
1
1
1
1
1
1
1
1
1
1
1
1
1
POINT_DATA 64
VECTORS displacement double
7.12009e-19 -0.0061803 0 
4.88601e-19 -0.0061803 0 
8.77985e-19 -0.0061803 0 
5.44235e-19 -0.0061803 0 
2.86242e-19 -0.0061803 0 
9.64122e-20 -0.0061803 0 
2.46804e-19 -0.0061803 0 
-6.93845e-21 -0.0061803 0 
-1.48525e-19 -0.0061803 0 
-4.79758e-19 -0.0061803 0 
-2.71863e-19 -0.0061803 0 
-5.50227e-19 -0.0061803 0 
-8.33614e-19 -0.0061803 0 
-1.22724e-18 -0.0061803 0 
-8.6359e-19 -0.0061803 0 
-1.24438e-18 -0.0061803 0 
1.00116e-18 -0.0061803 0 
5.66271e-19 -0.0061803 0 
1.08152e-18 -0.0061803 0 
5.54711e-19 -0.0061803 0 
1.91442e-19 -0.0061803 0 
-9.93248e-20 -0.0061803 0 
1.20157e-19 -0.0061803 0 
-1.80747e-19 -0.0061803 0 
-3.76859e-19 -0.0061803 0 
-6.2946e-19 -0.0061803 0 
-4.63512e-19 -0.0061803 0 
-7.17456e-19 -0.0061803 0 
-9.08087e-19 -0.0061803 0 
-1.23828e-18 -0.0061803 0 
-9.67103e-19 -0.0061803 0 
-1.20894e-18 -0.0061803 0 
1.10409e-18 -0.0061803 0 
5.57142e-19 -0.0061803 0 
1.06885e-18 -0.0061803 0 
5.73565e-19 -0.0061803 0 
9.90483e-20 -0.0061803 0 
-2.35054e-19 -0.0061803 0 
1.28116e-19 -0.0061803 0 
-2.62245e-19 -0.0061803 0 
-5.29368e-19 -0.0061803 0 
-7.64778e-19 -0.0061803 0 
-5.74425e-19 -0.0061803 0 
-7.71424e-19 -0.0061803 0 
-9.68046e-19 -0.0061803 0 
-1.11235e-18 -0.0061803 0 
-9.10915e-19 -0.0061803 0 
-9.48526e-19 -0.0061803 0 
9.87047e-19 -0.0061803 0 
5.61288e-19 -0.0061803 0 
8.58673e-19 -0.0061803 0 
5.2031e-19 -0.0061803 0 
1.54718e-19 -0.0061803 0 
-2.48082e-19 -0.0061803 0 
1.78852e-19 -0.0061803 0 
-1.92564e-19 -0.0061803 0 
-5.5224e-19 -0.0061803 0 
-7.16986e-19 -0.0061803 0 
-4.62813e-19 -0.0061803 0 
-6.01465e-19 -0.0061803 0 
-8.32206e-19 -0.0061803 0 
-8.49899e-19 -0.0061803 0 
-7.31916e-19 -0.0061803 0 
-8.16471e-19 -0.0061803 0 
VECTORS velocity double
2.03863e-17 -0.34335 0 
2.65111e-17 -0.34335 0 
6.24313e-17 -0.34335 0 
4.16732e-17 -0.34335 0 
2.86301e-17 -0.34335 0 
7.80461e-18 -0.34335 0 
2.16202e-17 -0.34335 0 
-5.92564e-18 -0.34335 0 
-2.11817e-17 -0.34335 0 
-6.5938e-17 -0.34335 0 
-2.85239e-17 -0.34335 0 
-4.49702e-17 -0.34335 0 
-1.22762e-16 -0.34335 0 
-1.88996e-16 -0.34335 0 
-8.49291e-17 -0.34335 0 
-1.634e-16 -0.34335 0 
7.99753e-17 -0.34335 0 
4.13873e-17 -0.34335 0 
7.30185e-17 -0.34335 0 
2.56533e-17 -0.34335 0 
1.07255e-17 -0.34335 0 
-1.60725e-17 -0.34335 0 
-4.05428e-18 -0.34335 0 
-2.26361e-17 -0.34335 0 
-3.56044e-17 -0.34335 0 
-4.2462e-17 -0.34335 0 
-4.24231e-17 -0.34335 0 
-5.84133e-17 -0.34335 0 
-7.19595e-17 -0.34335 0 
-1.41658e-16 -0.34335 0 
-8.38529e-17 -0.34335 0 
-1.2377e-16 -0.34335 0 
6.94728e-17 -0.34335 0 
2.90888e-17 -0.34335 0 
6.93382e-17 -0.34335 0 
5.16936e-17 -0.34335 0 
4.84784e-18 -0.34335 0 
-1.48357e-17 -0.34335 0 
3.74318e-17 -0.34335 0 
7.32859e-18 -0.34335 0 
-3.69343e-17 -0.34335 0 
-5.6174e-17 -0.34335 0 
-1.9138e-17 -0.34335 0 
-3.5744e-17 -0.34335 0 
-7.39779e-17 -0.34335 0 
-8.90593e-17 -0.34335 0 
-4.23345e-17 -0.34335 0 
-3.75269e-17 -0.34335 0 
6.26326e-17 -0.34335 0 
5.935e-17 -0.34335 0 
4.93558e-17 -0.34335 0 
5.20579e-17 -0.34335 0 
5.13169e-17 -0.34335 0 
1.96271e-17 -0.34335 0 
4.65032e-17 -0.34335 0 
2.20598e-17 -0.34335 0 
-5.12083e-18 -0.34335 0 
-1.70947e-17 -0.34335 0 
5.11714e-18 -0.34335 0 
-2.25947e-19 -0.34335 0 
-2.12531e-17 -0.34335 0 
-1.91202e-17 -0.34335 0 
-1.07336e-17 -0.34335 0 
-3.3839e-17 -0.34335 0 
SCALARS mass double 1
LOOKUP_TABLE default
0.625
0.625
0.625
0.625
0.625
0.625
0.625
0.625
0.625
0.625
0.625
0.625
0.625
0.625
0.625
0.625
0.625
0.625
0.625
0.625
0.625
0.625
0.625
0.625
0.625
0.625
0.625
0.625
0.625
0.625
0.625
0.625
0.625
0.625
0.625
0.625
0.625
0.625
0.625
0.625
0.625
0.625
0.625
0.625
0.625
0.625
0.625
0.625
0.625
0.625
0.625
0.625
0.625
0.625
0.625
0.625
0.625
0.625
0.625
0.625
0.625
0.625
0.625
0.625
SCALARS volume double 1
LOOKUP_TABLE default
0.000625
0.000625
0.000625
0.000625
0.000625
0.000625
0.000625
0.000625
0.000625
0.000625
0.000625
0.000625
0.000625
0.000625
0.000625
0.000625
0.000625
0.000625
0.000625
0.000625
0.000625
0.000625
0.000625
0.000625
0.000625
0.000625
0.000625
0.000625
0.000625
0.000625
0.000625
0.000625
0.000625
0.000625
0.000625
0.000625
0.000625
0.000625
0.000625
0.000625
0.000625
0.000625
0.000625
0.000625
0.000625
0.000625
0.000625
0.000625
0.000625
0.000625
0.000625
0.000625
0.000625
0.000625
0.000625
0.000625
0.000625
0.000625
0.000625
0.000625
0.000625
0.000625
0.000625
0.000625
VECTORS momentum double
1.27414e-17 -0.214594 0 
1.65694e-17 -0.214594 0 
3.90195e-17 -0.214594 0 
2.60458e-17 -0.214594 0 
1.78938e-17 -0.214594 0 
4.87788e-18 -0.214594 0 
1.35126e-17 -0.214594 0 
-3.70352e-18 -0.214594 0 
-1.32386e-17 -0.214594 0 
-4.12112e-17 -0.214594 0 
-1.78275e-17 -0.214594 0 
-2.81064e-17 -0.214594 0 
-7.67262e-17 -0.214594 0 
-1.18122e-16 -0.214594 0 
-5.30807e-17 -0.214594 0 
-1.02125e-16 -0.214594 0 
4.99846e-17 -0.214594 0 
2.58671e-17 -0.214594 0 
4.56366e-17 -0.214594 0 
1.60333e-17 -0.214594 0 
6.70341e-18 -0.214594 0 
-1.00453e-17 -0.214594 0 
-2.53392e-18 -0.214594 0 
-1.41475e-17 -0.214594 0 
-2.22528e-17 -0.214594 0 
-2.65388e-17 -0.214594 0 
-2.65145e-17 -0.214594 0 
-3.65083e-17 -0.214594 0 
-4.49747e-17 -0.214594 0 
-8.85361e-17 -0.214594 0 
-5.24081e-17 -0.214594 0 
-7.7356e-17 -0.214594 0 
4.34205e-17 -0.214594 0 
1.81805e-17 -0.214594 0 
4.33364e-17 -0.214594 0 
3.23085e-17 -0.214594 0 
3.0299e-18 -0.214594 0 
-9.27232e-18 -0.214594 0 
2.33949e-17 -0.214594 0 
4.58037e-18 -0.214594 0 
-2.3084e-17 -0.214594 0 
-3.51088e-17 -0.214594 0 
-1.19612e-17 -0.214594 0 
-2.234e-17 -0.214594 0 
-4.62362e-17 -0.214594 0 
-5.5662e-17 -0.214594 0 
-2.64591e-17 -0.214594 0 
-2.34543e-17 -0.214594 0 
3.91454e-17 -0.214594 0 
3.70938e-17 -0.214594 0 
3.08474e-17 -0.214594 0 
3.25362e-17 -0.214594 0 
3.20731e-17 -0.214594 0 
1.22669e-17 -0.214594 0 
2.90645e-17 -0.214594 0 
1.37874e-17 -0.214594 0 
-3.20052e-18 -0.214594 0 
-1.06842e-17 -0.214594 0 
3.19822e-18 -0.214594 0 
-1.41217e-19 -0.214594 0 
-1.32832e-17 -0.214594 0 
-1.19501e-17 -0.214594 0 
-6.7085e-18 -0.214594 0 
-2.11494e-17 -0.214594 0 
VECTORS body_force double
0 -9.81 0 
0 -9.81 0 
0 -9.81 0 
0 -9.81 0 
0 -9.81 0 
0 -9.81 0 
0 -9.81 0 
0 -9.81 0 
0 -9.81 0 
0 -9.81 0 
0 -9.81 0 
0 -9.81 0 
0 -9.81 0 
0 -9.81 0 
0 -9.81 0 
0 -9.81 0 
0 -9.81 0 
0 -9.81 0 
0 -9.81 0 
0 -9.81 0 
0 -9.81 0 
0 -9.81 0 
0 -9.81 0 
0 -9.81 0 
0 -9.81 0 
0 -9.81 0 
0 -9.81 0 
0 -9.81 0 
0 -9.81 0 
0 -9.81 0 
0 -9.81 0 
0 -9.81 0 
0 -9.81 0 
0 -9.81 0 
0 -9.81 0 
0 -9.81 0 
0 -9.81 0 
0 -9.81 0 
0 -9.81 0 
0 -9.81 0 
0 -9.81 0 
0 -9.81 0 
0 -9.81 0 
0 -9.81 0 
0 -9.81 0 
0 -9.81 0 
0 -9.81 0 
0 -9.81 0 
0 -9.81 0 
0 -9.81 0 
0 -9.81 0 
0 -9.81 0 
0 -9.81 0 
0 -9.81 0 
0 -9.81 0 
0 -9.81 0 
0 -9.81 0 
0 -9.81 0 
0 -9.81 0 
0 -9.81 0 
0 -9.81 0 
0 -9.81 0 
0 -9.81 0 
0 -9.81 0 
TENSORS cauchy_stress double
1.03503e-12 -5.33457e-13 0
-5.33457e-13 7.12751e-13 0
0 0 5.24334e-13

1.27725e-16 -5.86769e-14 0
-5.86769e-14 -5.70307e-13 0
0 0 -1.71054e-13

2.69214e-13 -1.76124e-13 0
-1.76124e-13 -1.07415e-12 0
0 0 -2.4148e-13

-9.75506e-14 2.88398e-14 0
2.88398e-14 -7.98223e-13 0
0 0 -2.68732e-13

4.89403e-13 -5.07418e-13 0
-5.07418e-13 1.54643e-12 0
0 0 6.10751e-13

7.80568e-13 -3.03789e-13 0
-3.03789e-13 2.88133e-12 0
0 0 1.09857e-12

7.4841e-13 -4.15993e-13 0
-4.15993e-13 2.15079e-12 0
0 0 8.69759e-13

3.21e-13 -7.43862e-14 0
-7.43862e-14 1.80901e-12 0
0 0 6.39002e-13

-1.27299e-13 -1.00461e-13 0
-1.00461e-13 9.67977e-13 0
0 0 2.52204e-13

-1.45872e-12 -2.9822e-13 0
-2.9822e-13 -2.68091e-12 0
0 0 -1.24189e-12

9.32781e-14 3.84132e-13 0
3.84132e-13 1.48266e-12 0
0 0 4.7278e-13

-6.13239e-13 4.78621e-14 0
4.78621e-14 -7.08126e-13 0
0 0 -3.96409e-13

2.34105e-13 1.9186e-13 0
1.9186e-13 8.53696e-13 0
0 0 3.2634e-13

6.78422e-14 4.13392e-14 0
4.13392e-14 3.34082e-13 0
0 0 1.20577e-13

-1.29512e-12 4.81693e-13 0
4.81693e-13 -2.7145e-12 0
0 0 -1.20289e-12

3.43263e-13 4.61442e-14 0
4.61442e-14 9.7673e-13 0
0 0 3.95998e-13

-9.60672e-15 4.92144e-13 0
4.92144e-13 -8.46697e-13 0
0 0 -2.56891e-13

-3.26462e-13 -2.10677e-14 0
-2.10677e-14 -6.43173e-13 0
0 0 -2.90891e-13

4.7278e-13 -3.03409e-13 0
-3.03409e-13 2.78872e-13 0
0 0 2.25495e-13

-6.0989e-13 4.5987e-13 0
4.5987e-13 -1.3045e-12 0
0 0 -5.74318e-13

3.4394e-13 -1.12509e-14 0
-1.12509e-14 1.53366e-12 0
0 0 5.63279e-13

3.07772e-13 -1.46292e-13 0
-1.46292e-13 1.55323e-12 0
0 0 5.58301e-13

1.66998e-13 7.92477e-13 0
7.92477e-13 1.12079e-12 0
0 0 3.86337e-13

2.66138e-13 3.18497e-13 0
3.18497e-13 1.45609e-12 0
0 0 5.16668e-13

-1.90775e-13 3.01181e-14 0
3.01181e-14 4.43613e-13 0
0 0 7.58513e-14

-2.94482e-13 1.70764e-13 0
1.70764e-13 2.154e-13 0
0 0 -2.37246e-14

3.16431e-13 1.05715e-13 0
1.05715e-13 1.62709e-12 0
0 0 5.83058e-13

3.26815e-13 -1.30208e-13 0
-1.30208e-13 1.6651e-12 0
0 0 5.97573e-13

-9.93521e-13 -3.75614e-13 0
-3.75614e-13 -1.71292e-12 0
0 0 -8.11933e-13

-7.09904e-13 -3.24373e-13 0
-3.24373e-13 -1.95738e-12 0
0 0 -8.00185e-13

8.88205e-15 5.09722e-13 0
5.09722e-13 6.26019e-13 0
0 0 1.9047e-13

-8.5416e-15 6.34974e-14 0
6.34974e-14 -3.20867e-13 0
0 0 -9.88227e-14

-1.2698e-12 -1.37427e-13 0
-1.37427e-13 -2.60147e-12 0
0 0 -1.16138e-12

-1.56564e-13 1.48136e-13 0
1.48136e-13 -5.33759e-13 0
0 0 -2.07097e-13

5.68608e-14 -7.66315e-14 0
-7.66315e-14 4.94079e-13 0
0 0 1.65282e-13

-1.25665e-12 -3.17955e-14 0
-3.17955e-14 -3.10062e-12 0
0 0 -1.30718e-12

2.84172e-14 -7.84537e-14 0
-7.84537e-14 -2.31826e-13 0
0 0 -6.10227e-14

2.3469e-13 3.2934e-13 0
3.2934e-13 8.26497e-13 0
0 0 3.18356e-13

-5.4164e-13 -1.13766e-13 0
-1.13766e-13 -1.56196e-12 0
0 0 -6.3108e-13

-9.82285e-13 -8.601e-14 0
-8.601e-14 -2.01311e-12 0
0 0 -8.98619e-13

-6.97781e-13 2.86617e-13 0
2.86617e-13 -1.16603e-12 0
0 0 -5.59143e-13

7.52044e-13 -9.74236e-14 0
-9.74236e-14 1.82294e-12 0
0 0 7.72494e-13

9.43934e-13 4.19637e-13 0
4.19637e-13 2.66464e-12 0
0 0 1.08257e-12

-7.30745e-13 -6.42547e-13 0
-6.42547e-13 -1.6369e-12 0
0 0 -7.10294e-13

-8.53305e-13 9.29086e-14 0
9.29086e-14 -2.577e-12 0
0 0 -1.02909e-12

-1.76306e-13 -5.86035e-13 0
-5.86035e-13 -2.09165e-12 0
0 0 -6.80387e-13

-7.62032e-13 -1.34724e-13 0
-1.34724e-13 -2.36403e-12 0
0 0 -9.37818e-13

9.1108e-14 2.13288e-13 0
2.13288e-13 -1.46768e-12 0
0 0 -4.12973e-13

-9.23432e-13 -5.55735e-13 0
-5.55735e-13 -8.38016e-13 0
0 0 -5.28434e-13

-6.51393e-13 -3.87066e-13 0
-3.87066e-13 -1.09964e-12 0
0 0 -5.25309e-13

3.0933e-14 -2.6542e-13 0
-2.6542e-13 1.38884e-12 0
0 0 4.25931e-13

-1.09175e-12 1.26361e-13 0
1.26361e-13 -2.12713e-12 0
0 0 -9.65662e-13

1.75593e-13 -1.47313e-13 0
-1.47313e-13 1.62181e-13 0
0 0 1.01332e-13

-7.17872e-13 7.414e-13 0
7.414e-13 -2.24445e-12 0
0 0 -8.88696e-13

1.29956e-13 -9.31591e-14 0
-9.31591e-14 5.56954e-14 0
0 0 5.56954e-14

-8.2836e-13 -6.32685e-14 0
-6.32685e-14 -2.50226e-12 0
0 0 -9.99185e-13

2.61353e-13 -3.72823e-14 0
-3.72823e-14 -3.07375e-13 0
0 0 -1.38066e-14

9.07066e-13 2.62352e-14 0
2.62352e-14 9.31654e-13 0
0 0 5.51616e-13

8.09793e-13 3.17248e-13 0
3.17248e-13 9.72317e-13 0
0 0 5.34633e-13

-8.0951e-13 -5.35702e-13 0
-5.35702e-13 -3.07369e-12 0
0 0 -1.16496e-12

-1.33319e-13 1.7721e-13 0
1.7721e-13 -1.33969e-12 0
0 0 -4.41902e-13

-1.1939e-12 -2.79156e-13 0
-2.79156e-13 -3.12863e-12 0
0 0 -1.29676e-12

-6.94569e-13 -2.03744e-13 0
-2.03744e-13 -2.64927e-12 0
0 0 -1.00315e-12

-1.12985e-12 -1.68515e-13 0
-1.68515e-13 -2.97917e-12 0
0 0 -1.23271e-12

TENSORS velocity_gradient double
3.69653e-16 -1.19303e-16 0
-2.22045e-16 -2.22045e-16 0
0 0 0

-6.51236e-17 -1.19303e-16 0
7.10543e-15 -1.77636e-15 0
0 0 0

3.69653e-16 -5.5408e-16 0
4.88498e-15 4.88498e-15 0
0 0 0

-6.51236e-17 -5.5408e-16 0
5.32907e-15 1.77636e-15 0
0 0 0

-3.45944e-16 -9.37884e-16 0
1.9984e-15 2.22045e-16 0
0 0 0

-2.03072e-16 -9.37884e-16 0
0 0 0
0 0 0

-3.45944e-16 -7.95012e-16 0
3.55271e-15 0 0
0 0 0

-2.03072e-16 -7.95012e-16 0
-1.77636e-15 -5.32907e-15 0
0 0 0

1.33171e-17 -1.78458e-15 0
1.11022e-15 1.11022e-15 0
0 0 0

4.3203e-16 -1.78458e-15 0
1.77636e-15 -1.77636e-15 0
0 0 0

1.33171e-17 -1.36586e-15 0
2.66454e-15 8.88178e-16 0
0 0 0

4.3203e-16 -1.36586e-15 0
1.77636e-15 1.77636e-15 0
0 0 0

6.97857e-16 -1.13495e-15 0
3.9968e-15 -3.10862e-15 0
0 0 0

5.42937e-16 -1.13495e-15 0
2.66454e-15 -8.88178e-16 0
0 0 0

6.97857e-16 -1.28987e-15 0
3.55271e-15 -1.77636e-15 0
0 0 0

5.42937e-16 -1.28987e-15 0
0 3.55271e-15 0
0 0 0

-5.67286e-18 -7.8772e-16 0
6.66134e-16 2.44249e-15 0
0 0 0

-3.81768e-17 -7.8772e-16 0
-4.44089e-16 -4.44089e-16 0
0 0 0

-5.67286e-18 -8.20224e-16 0
-3.9968e-15 -4.44089e-16 0
0 0 0

-3.81768e-17 -8.20224e-16 0
1.77636e-15 1.77636e-15 0
0 0 0

-9.26865e-17 -7.81112e-16 0
-1.55431e-15 -6.88338e-15 0
0 0 0

-2.07757e-16 -7.81112e-16 0
3.55271e-15 -1.77636e-15 0
0 0 0

-9.26865e-17 -8.96182e-16 0
-8.88178e-16 -2.66454e-15 0
0 0 0

-2.07757e-16 -8.96182e-16 0
-3.55271e-15 -3.55271e-15 0
0 0 0

-2.36185e-16 -1.0515e-15 0
0 3.55271e-15 0
0 0 0

-2.61702e-17 -1.0515e-15 0
-4.44089e-16 -4.44089e-16 0
0 0 0

-2.36185e-16 -8.41486e-16 0
-2.66454e-15 8.88178e-16 0
0 0 0

-2.61702e-17 -8.41486e-16 0
-5.32907e-15 1.77636e-15 0
0 0 0

2.4686e-16 -1.14411e-15 0
-2.44249e-15 1.11022e-15 0
0 0 0

6.9331e-16 -1.14411e-15 0
2.22045e-15 -1.33227e-15 0
0 0 0

2.4686e-16 -6.97657e-16 0
-8.88178e-16 2.66454e-15 0
0 0 0

6.9331e-16 -6.97657e-16 0
-3.55271e-15 0 0
0 0 0

1.61407e-16 -7.0259e-16 0
-1.55431e-15 1.9984e-15 0
0 0 0

4.29179e-16 -7.0259e-16 0
-4.44089e-16 3.10862e-15 0
0 0 0

1.61407e-16 -4.34819e-16 0
0 3.55271e-15 0
0 0 0

4.29179e-16 -4.34819e-16 0
-1.77636e-15 5.32907e-15 0
0 0 0

6.20978e-16 -9.62356e-16 0
-3.9968e-15 -7.54952e-15 0
0 0 0

6.037e-16 -9.62356e-16 0
-8.88178e-16 -1.15463e-14 0
0 0 0

6.20978e-16 -9.79634e-16 0
8.88178e-16 -6.21725e-15 0
0 0 0

6.037e-16 -9.79634e-16 0
0 -1.77636e-15 0
0 0 0

6.25757e-16 -6.71326e-16 0
-3.9968e-15 -5.77316e-15 0
0 0 0

7.56063e-16 -6.71326e-16 0
-1.33227e-15 2.22045e-15 0
0 0 0

6.25757e-16 -5.4102e-16 0
2.22045e-15 7.54952e-15 0
0 0 0

7.56063e-16 -5.4102e-16 0
1.77636e-15 1.77636e-15 0
0 0 0

8.76322e-16 -4.28127e-16 0
-2.44249e-15 -2.44249e-15 0
0 0 0

9.68933e-16 -4.28127e-16 0
-2.22045e-15 1.33227e-15 0
0 0 0

8.76322e-16 -3.35516e-16 0
1.77636e-15 0 0
0 0 0

9.68933e-16 -3.35516e-16 0
0 0 0
0 0 0

-3.73741e-17 -2.45848e-16 0
-8.88178e-16 -4.44089e-15 0
0 0 0

7.27963e-17 -2.45848e-16 0
-4.44089e-16 -4.44089e-16 0
0 0 0

-3.73741e-17 -1.35678e-16 0
3.9968e-15 4.44089e-16 0
0 0 0

7.27963e-17 -1.35678e-16 0
-1.77636e-15 0 0
0 0 0

1.48382e-16 -9.98069e-16 0
-3.55271e-15 -5.32907e-15 0
0 0 0

1.2879e-16 -9.98069e-16 0
4.44089e-16 -1.02141e-14 0
0 0 0

1.48382e-16 -1.01766e-15 0
-3.10862e-15 -1.33227e-15 0
0 0 0

1.2879e-16 -1.01766e-15 0
0 0 0
0 0 0

1.63515e-16 -3.83765e-16 0
-6.66134e-16 -4.21885e-15 0
0 0 0

3.47718e-16 -3.83765e-16 0
3.55271e-15 0 0
0 0 0

1.63515e-16 -1.99562e-16 0
4.44089e-15 2.66454e-15 0
0 0 0

3.47718e-16 -1.99562e-16 0
3.55271e-15 1.77636e-15 0
0 0 0

4.59684e-16 -3.32628e-16 0
-2.22045e-16 -3.77476e-15 0
0 0 0

3.72849e-16 -3.32628e-16 0
2.66454e-15 -4.44089e-15 0
0 0 0

4.59684e-16 -4.19462e-16 0
4.44089e-15 -8.88178e-16 0
0 0 0

3.72849e-16 -4.19462e-16 0
3.55271e-15 1.77636e-15 0
0 0 0

SCALARS active double 1
LOOKUP_TABLE default
1
1
1
1
1
1
1
1
1
1
1
1
1
1
1
1
1
1
1
1
1
1
1
1
1
1
1
1
1
1
1
1
1
1
1
1
1
1
1
1
1
1
1
1
1
1
1
1
1
1
1
1
1
1
1
1
1
1
1
1
1
1
1
1
SCALARS extent double 1
LOOKUP_TABLE default
0.0125
0.0125
0.0125
0.0125
0.0125
0.0125
0.0125
0.0125
0.0125
0.0125
0.0125
0.0125
0.0125
0.0125
0.0125
0.0125
0.0125
0.0125
0.0125
0.0125
0.0125
0.0125
0.0125
0.0125
0.0125
0.0125
0.0125
0.0125
0.0125
0.0125
0.0125
0.0125
0.0125
0.0125
0.0125
0.0125
0.0125
0.0125
0.0125
0.0125
0.0125
0.0125
0.0125
0.0125
0.0125
0.0125
0.0125
0.0125
0.0125
0.0125
0.0125
0.0125
0.0125
0.0125
0.0125
0.0125
0.0125
0.0125
0.0125
0.0125
0.0125
0.0125
0.0125
0.0125
SCALARS pressure double 1
LOOKUP_TABLE default
-7.57371e-13
2.47078e-13
3.48805e-13
3.88169e-13
-8.82196e-13
-1.58682e-12
-1.25632e-12
-9.23003e-13
-3.64294e-13
1.79384e-12
-6.82905e-13
5.72591e-13
-4.7138e-13
-1.74167e-13
1.7375e-12
-5.71997e-13
3.71065e-13
4.20175e-13
-3.25716e-13
8.2957e-13
-8.13625e-13
-8.06435e-13
-5.58042e-13
-7.46298e-13
-1.09563e-13
3.42689e-14
-8.42195e-13
-8.63161e-13
1.17279e-12
1.15582e-12
-2.75124e-13
1.42744e-13
1.67755e-12
2.9914e-13
-2.3874e-13
1.88815e-12
8.81439e-14
-4.59848e-13
9.11559e-13
1.29801e-12
8.07651e-13
-1.11582e-12
-1.56372e-12
1.02598e-12
1.48646e-12
9.82782e-13
1.35463e-12
5.96517e-13
7.63294e-13
7.58779e-13
-6.15233e-13
1.39484e-12
-1.46368e-13
1.28367e-12
-8.04489e-14
1.44327e-12
1.99429e-14
-7.96779e-13
-7.72247e-13
1.68272e-12
6.38303e-13
1.8731e-12
1.449e-12
1.78058e-12
SCALARS density double 1
LOOKUP_TABLE default
1000
1000
1000
1000
1000
1000
1000
1000
1000
1000
1000
1000
1000
1000
1000
1000
1000
1000
1000
1000
1000
1000
1000
1000
1000
1000
1000
1000
1000
1000
1000
1000
1000
1000
1000
1000
1000
1000
1000
1000
1000
1000
1000
1000
1000
1000
1000
1000
1000
1000
1000
1000
1000
1000
1000
1000
1000
1000
1000
1000
1000
1000
1000
1000
