# vtk DataFile Version 3.0
Frame: 35, Time: 0.584
ASCII
DATASET UNSTRUCTURED_GRID
POINTS 64 double
0.439589 0.0541862 0 
0.415229 0.0612649 0 
0.443865 0.0788443 0 
0.420127 0.0868228 0 
0.391347 0.0673921 0 
0.365829 0.0732193 0 
0.397497 0.0918379 0 
0.37264 0.0962494 0 
0.341599 0.0796073 0 
0.314919 0.0829267 0 
0.347822 0.103418 0 
0.3228 0.106918 0 
0.289463 0.0920135 0 
0.266593 0.0991183 0 
0.297705 0.115467 0 
0.274009 0.122055 0 
0.448416 0.103134 0 
0.424242 0.111153 0 
0.458995 0.124442 0 
0.433531 0.132396 0 
0.400513 0.116615 0 
0.377088 0.121013 0 
0.409642 0.139587 0 
0.386447 0.145101 0 
0.352778 0.12652 0 
0.328707 0.128998 0 
0.362332 0.15085 0 
0.337233 0.154533 0 
0.305761 0.138389 0 
0.281121 0.148766 0 
0.313776 0.16268 0 
0.290443 0.1714 0 
0.467864 0.149038 0 
0.442746 0.153834 0 
0.473874 0.173341 0 
0.449434 0.178543 0 
0.418992 0.16095 0 
0.395446 0.168629 0 
0.427125 0.184794 0 
0.403147 0.193056 0 
0.371062 0.175266 0 
0.34671 0.179031 0 
0.376727 0.198739 0 
0.353722 0.204088 0 
0.322441 0.186116 0 
0.298303 0.19396 0 
0.329743 0.212097 0 
0.304303 0.218884 0 
0.482236 0.19584 0 
0.457247 0.201909 0 
0.48665 0.220481 0 
0.462992 0.227648 0 
0.434864 0.209674 0 
0.409385 0.215406 0 
0.439225 0.235332 0 
0.413578 0.240027 0 
0.383073 0.221227 0 
0.360012 0.229398 0 
0.389401 0.247259 0 
0.366634 0.255671 0 
0.336543 0.236236 0 
0.311163 0.242203 0 
0.342529 0.260887 0 
0.318143 0.266847 0 
CELLS 64 128
1 0
1 1
1 2
1 3
1 4
1 5
1 6
1 7
1 8
1 9
1 10
1 11
1 12
1 13
1 14
1 15
1 16
1 17
1 18
1 19
1 20
1 21
1 22
1 23
1 24
1 25
1 26
1 27
1 28
1 29
1 30
1 31
1 32
1 33
1 34
1 35
1 36
1 37
1 38
1 39
1 40
1 41
1 42
1 43
1 44
1 45
1 46
1 47
1 48
1 49
1 50
1 51
1 52
1 53
1 54
1 55
1 56
1 57
1 58
1 59
1 60
1 61
1 62
1 63
CELL_TYPES 64
1
1
1
1
1
1
1
1
1
1
1
1
1
1
1
1
1
1
1
1
1
1
1
1
1
1
1
1
1
1
1
1
1
1
1
1
1
1
1
1
1
1
1
1
1
1
1
1
1
1
1
1
1
1
1
1
1
1
1
1
1
1
1
1
POINT_DATA 64
VECTORS displacement double
0.0270894 -0.358314 0 
0.00272878 -0.376235 0 
0.00636496 -0.333656 0 
-0.0173726 -0.350677 0 
-0.0211532 -0.395108 0 
-0.0466713 -0.414281 0 
-0.0400026 -0.370662 0 
-0.0648595 -0.391251 0 
-0.0709005 -0.432893 0 
-0.0975814 -0.454573 0 
-0.0896776 -0.409082 0 
-0.1147 -0.430582 0 
-0.123037 -0.470487 0 
-0.145907 -0.488382 0 
-0.139795 -0.447033 0 
-0.163491 -0.465445 0 
-0.0140842 -0.309366 0 
-0.0382584 -0.326347 0 
-0.0285051 -0.288058 0 
-0.0539695 -0.305104 0 
-0.0619872 -0.345885 0 
-0.0854121 -0.366487 0 
-0.0778575 -0.322913 0 
-0.101053 -0.342399 0 
-0.109722 -0.38598 0 
-0.133793 -0.408502 0 
-0.125168 -0.36165 0 
-0.150267 -0.382967 0 
-0.156739 -0.424111 0 
-0.181379 -0.438734 0 
-0.173724 -0.39982 0 
-0.197057 -0.4161 0 
-0.044636 -0.263462 0 
-0.0697538 -0.283666 0 
-0.0636256 -0.239159 0 
-0.0880656 -0.258957 0 
-0.0935084 -0.30155 0 
-0.117054 -0.318871 0 
-0.110375 -0.277706 0 
-0.134353 -0.294444 0 
-0.141438 -0.337234 0 
-0.16579 -0.358469 0 
-0.160773 -0.313761 0 
-0.183778 -0.333412 0 
-0.190059 -0.376384 0 
-0.214197 -0.39354 0 
-0.207757 -0.350403 0 
-0.233197 -0.368616 0 
-0.0802638 -0.21666 0 
-0.105253 -0.235591 0 
-0.10085 -0.192019 0 
-0.124508 -0.209852 0 
-0.127636 -0.252826 0 
-0.153115 -0.272094 0 
-0.148275 -0.227168 0 
-0.173922 -0.247473 0 
-0.179427 -0.291273 0 
-0.202488 -0.308102 0 
-0.198099 -0.265241 0 
-0.220866 -0.281829 0 
-0.225957 -0.326264 0 
-0.251337 -0.345297 0 
-0.244971 -0.301613 0 
-0.269357 -0.320653 0 
VECTORS velocity double
0.401422 -0.539355 0 
-0.313318 -0.811693 0 
0.252435 -0.50173 0 
-0.458942 -0.741636 0 
0.805097 -1.16579 0 
-0.161207 -1.01781 0 
0.435072 -1.25035 0 
-0.103863 -0.962827 0 
0.867567 -1.47043 0 
0.339198 -1.60464 0 
0.0626193 -1.1062 0 
-0.378167 -1.22774 0 
-0.0787847 -1.70515 0 
0.121829 -1.91098 0 
-0.350074 -1.51283 0 
-0.742126 -1.965 0 
-0.084232 -0.231645 0 
-0.532456 -0.569069 0 
-0.306813 -0.370223 0 
-0.619034 -0.951044 0 
-0.0623224 -0.659259 0 
-0.427378 -0.858118 0 
-0.501003 -0.584014 0 
-0.883094 -0.6774 0 
-0.807183 -1.376 0 
-0.983428 -1.66794 0 
-0.519891 -1.22283 0 
-0.439744 -1.32945 0 
-0.254043 -1.40212 0 
-0.223557 -1.81318 0 
0.173837 -0.719206 0 
-0.460731 -1.76624 0 
-0.523734 -0.329634 0 
-0.515662 -0.833756 0 
-0.779072 -0.512837 0 
-0.417394 -0.223109 0 
-0.447951 -0.552775 0 
-0.355942 -0.463201 0 
-0.789596 -0.647638 0 
-0.755855 -0.49484 0 
0.463041 -0.878531 0 
0.344868 -1.38167 0 
-0.331095 -0.511752 0 
-0.900504 -1.23734 0 
-0.263526 -1.66226 0 
-0.663787 -2.14278 0 
-0.841378 -1.15505 0 
-0.362011 -1.37247 0 
-0.310527 -0.309167 0 
-0.242836 -0.31667 0 
-0.951986 -0.00863624 0 
-1.13135 -0.42742 0 
-0.319753 -0.892449 0 
-0.142376 -0.464564 0 
-0.974275 -0.271053 0 
-0.771094 -0.275215 0 
-0.411163 -0.518042 0 
-0.969816 -1.46719 0 
-1.07904 -0.657219 0 
-0.997768 -0.832924 0 
-0.346392 -1.49644 0 
-0.922856 -2.06331 0 
-1.16755 -1.21561 0 
-1.21611 -1.69917 0 
SCALARS mass double 1
LOOKUP_TABLE default
0.625
0.625
0.625
0.625
0.625
0.625
0.625
0.625
0.625
0.625
0.625
0.625
0.625
0.625
0.625
0.625
0.625
0.625
0.625
0.625
0.625
0.625
0.625
0.625
0.625
0.625
0.625
0.625
0.625
0.625
0.625
0.625
0.625
0.625
0.625
0.625
0.625
0.625
0.625
0.625
0.625
0.625
0.625
0.625
0.625
0.625
0.625
0.625
0.625
0.625
0.625
0.625
0.625
0.625
0.625
0.625
0.625
0.625
0.625
0.625
0.625
0.625
0.625
0.625
SCALARS volume double 1
LOOKUP_TABLE default
0.000671288
0.000590207
0.000620834
0.00062166
0.000642339
0.000643488
0.000602363
0.000620688
0.000620486
0.00066274
0.000588844
0.000595756
0.000629116
0.000612528
0.000642116
0.000641774
0.000592623
0.000622889
0.000666782
0.000655279
0.000607633
0.000664504
0.000581025
0.000590103
0.000661054
0.000590832
0.000625818
0.000639718
0.000639803
0.000615332
0.000605536
0.0006083
0.000649208
0.000628685
0.00062155
0.000610715
0.000631077
0.000632094
0.00062469
0.000590282
0.000653544
0.00064799
0.00059823
0.000599748
0.000623756
0.00062671
0.000646075
0.000616574
0.000630956
0.000652061
0.00062971
0.000622631
0.000630227
0.000620569
0.000629
0.000612369
0.00063493
0.000640577
0.000634096
0.000611843
0.000627069
0.000598523
0.000638689
0.000631221
VECTORS momentum double
0.250889 -0.337097 0 
-0.195824 -0.507308 0 
0.157772 -0.313581 0 
-0.286838 -0.463523 0 
0.503185 -0.728616 0 
-0.100754 -0.636133 0 
0.27192 -0.781472 0 
-0.0649142 -0.601767 0 
0.542229 -0.919022 0 
0.211999 -1.0029 0 
0.0391371 -0.691372 0 
-0.236354 -0.767338 0 
-0.0492404 -1.06572 0 
0.0761432 -1.19436 0 
-0.218796 -0.945516 0 
-0.463829 -1.22812 0 
-0.052645 -0.144778 0 
-0.332785 -0.355668 0 
-0.191758 -0.231389 0 
-0.386896 -0.594402 0 
-0.0389515 -0.412037 0 
-0.267111 -0.536324 0 
-0.313127 -0.365009 0 
-0.551934 -0.423375 0 
-0.504489 -0.860002 0 
-0.614642 -1.04246 0 
-0.324932 -0.764266 0 
-0.27484 -0.830905 0 
-0.158777 -0.876322 0 
-0.139723 -1.13324 0 
0.108648 -0.449504 0 
-0.287957 -1.1039 0 
-0.327334 -0.206021 0 
-0.322289 -0.521097 0 
-0.48692 -0.320523 0 
-0.260871 -0.139443 0 
-0.279969 -0.345485 0 
-0.222464 -0.289501 0 
-0.493497 -0.404774 0 
-0.472409 -0.309275 0 
0.289401 -0.549082 0 
0.215542 -0.863544 0 
-0.206934 -0.319845 0 
-0.562815 -0.773337 0 
-0.164704 -1.03891 0 
-0.414867 -1.33924 0 
-0.525861 -0.721907 0 
-0.226257 -0.857794 0 
-0.19408 -0.193229 0 
-0.151772 -0.197919 0 
-0.594991 -0.00539765 0 
-0.707092 -0.267137 0 
-0.199845 -0.55778 0 
-0.0889853 -0.290352 0 
-0.608922 -0.169408 0 
-0.481934 -0.172009 0 
-0.256977 -0.323776 0 
-0.606135 -0.916994 0 
-0.674403 -0.410762 0 
-0.623605 -0.520578 0 
-0.216495 -0.935277 0 
-0.576785 -1.28957 0 
-0.729721 -0.759758 0 
-0.760067 -1.06198 0 
VECTORS body_force double
0 -9.81 0 
0 -9.81 0 
0 -9.81 0 
0 -9.81 0 
0 -9.81 0 
0 -9.81 0 
0 -9.81 0 
0 -9.81 0 
0 -9.81 0 
0 -9.81 0 
0 -9.81 0 
0 -9.81 0 
0 -9.81 0 
0 -9.81 0 
0 -9.81 0 
0 -9.81 0 
0 -9.81 0 
0 -9.81 0 
0 -9.81 0 
0 -9.81 0 
0 -9.81 0 
0 -9.81 0 
0 -9.81 0 
0 -9.81 0 
0 -9.81 0 
0 -9.81 0 
0 -9.81 0 
0 -9.81 0 
0 -9.81 0 
0 -9.81 0 
0 -9.81 0 
0 -9.81 0 
0 -9.81 0 
0 -9.81 0 
0 -9.81 0 
0 -9.81 0 
0 -9.81 0 
0 -9.81 0 
0 -9.81 0 
0 -9.81 0 
0 -9.81 0 
0 -9.81 0 
0 -9.81 0 
0 -9.81 0 
0 -9.81 0 
0 -9.81 0 
0 -9.81 0 
0 -9.81 0 
0 -9.81 0 
0 -9.81 0 
0 -9.81 0 
0 -9.81 0 
0 -9.81 0 
0 -9.81 0 
0 -9.81 0 
0 -9.81 0 
0 -9.81 0 
0 -9.81 0 
0 -9.81 0 
0 -9.81 0 
0 -9.81 0 
0 -9.81 0 
0 -9.81 0 
0 -9.81 0 
TENSORS cauchy_stress double
11670.6 3254.72 0
3254.72 2069.2 0
0 0 4121.94

-11014.9 -2342.75 0
-2342.75 -0.203108 0
0 0 -3304.54

-2470.9 1332.87 0
1332.87 1184.85 0
0 0 -385.815

-3735 761.403 0
761.403 2704.59 0
0 0 -309.121

3405.55 2245.28 0
2245.28 1856.97 0
0 0 1578.76

5547.82 -2275.44 0
-2275.44 58.3003 0
0 0 1681.84

-3798.75 5635.64 0
5635.64 -3295.75 0
0 0 -2128.35

-1887.05 -7812.79 0
-7812.79 555.628 0
0 0 -399.426

763.409 719.369 0
719.369 -2157.46 0
0 0 -418.215

10221.6 1384.85 0
1384.85 1053.65 0
0 0 3382.59

-3099.35 -1232.5 0
-1232.5 -8360.42 0
0 0 -3437.93

-3435.85 126.46 0
126.46 -5779.58 0
0 0 -2764.63

1708.25 1078.42 0
1078.42 -445.948 0
0 0 378.689

-2604.22 -152.813 0
-152.813 -1272.12 0
0 0 -1162.9

2617.26 -2355.97 0
-2355.97 2578.29 0
0 0 1558.67

2019.53 1435.94 0
1435.94 3073.67 0
0 0 1527.96

-7583.8 2376.45 0
2376.45 -2645.54 0
0 0 -3068.8

1484.75 -5782.73 0
-5782.73 -2135.49 0
0 0 -195.223

4730.07 556.289 0
556.289 7714.57 0
0 0 3733.39

8441.03 -4854.58 0
-4854.58 656.961 0
0 0 2729.4

-2167.99 5757.22 0
5757.22 -3251.43 0
0 0 -1625.83

-1689.52 -1922.75 0
-1922.75 13475.8 0
0 0 3535.9

-1216.36 5845.72 0
5845.72 -12813.9 0
0 0 -4209.09

-5040.53 3648.78 0
3648.78 -6008.51 0
0 0 -3314.71

982.051 -1147.4 0
-1147.4 9803.31 0
0 0 3235.61

-8395.78 5765.8 0
5765.8 -2415.67 0
0 0 -3243.43

3717.17 10488.4 0
10488.4 -3465.77 0
0 0 75.4207

6100.32 5466.13 0
5466.13 -1624.11 0
0 0 1342.86

3036.14 -2115.89 0
-2115.89 1465.66 0
0 0 1350.54

-124.545 1833.59 0
1833.59 -2873.49 0
0 0 -899.411

-2191.97 1830.8 0
1830.8 -3892.08 0
0 0 -1825.22

-100.981 781.757 0
781.757 -5107.41 0
0 0 -1562.52

-1376.53 772.058 0
772.058 8684.41 0
0 0 2192.36

1031.1 -1730.8 0
-1730.8 99.5276 0
0 0 339.189

-2525.73 208.081 0
208.081 1461.25 0
0 0 -319.346

-4209.78 962.406 0
962.406 -236.695 0
0 0 -1333.94

2799.66 27.0735 0
27.0735 -938.982 0
0 0 558.204

-4081.77 -2341.5 0
-2341.5 6252.17 0
0 0 651.12

173.793 1572.32 0
1572.32 -269.329 0
0 0 -28.661

1207.11 1285.78 0
1285.78 -12197.7 0
0 0 -3297.18

5887.05 -3202.61 0
-3202.61 2700.99 0
0 0 2576.41

-413.451 -4614.87 0
-4614.87 7360.3 0
0 0 2084.05

4009.5 4248.66 0
4248.66 -12428.1 0
0 0 -2525.57

-4691.68 2933.81 0
2933.81 -3239.61 0
0 0 -2379.39

-2734.4 -2596.06 0
-2596.06 2351.16 0
0 0 -114.971

2396.01 160.12 0
160.12 -1870.54 0
0 0 157.642

6750.29 1385.32 0
1385.32 -372.746 0
0 0 1913.26

-1704.25 -814.585 0
-814.585 -906.024 0
0 0 -783.082

511.719 499.686 0
499.686 1312.13 0
0 0 547.155

3909.92 811.738 0
811.738 4241.34 0
0 0 2445.38

-567.46 -677.752 0
-677.752 2011.33 0
0 0 433.16

-292.294 -1048.39 0
-1048.39 -437.99 0
0 0 -219.085

2010.82 372.905 0
372.905 -409.262 0
0 0 480.467

-1987.42 -3885.98 0
-3885.98 619.101 0
0 0 -410.496

2411.65 30.1191 0
30.1191 -1184.66 0
0 0 368.097

-2549.02 -740.6 0
-740.6 -1377.11 0
0 0 -1177.84

3128.97 -2517.61 0
-2517.61 -97.5326 0
0 0 909.432

-5424.28 -4944.35 0
-4944.35 10158.6 0
0 0 1420.28

3258.23 2429.9 0
2429.9 -479.68 0
0 0 833.564

-1862.12 -367.231 0
-367.231 -2229.35 0
0 0 -1227.44

-1518.48 -3177.67 0
-3177.67 2153.91 0
0 0 190.628

-5869.72 -2132.43 0
-2132.43 -2454.58 0
0 0 -2497.29

1383.63 3471.35 0
3471.35 2782.84 0
0 0 1249.94

-1014.58 7.56652 0
7.56652 2919.14 0
0 0 571.367

TENSORS velocity_gradient double
0.49042 -6.00899 0
6.14679 -0.0800397 0
0 0 0

0.138949 -5.92247 0
6.50724 0.575044 0
0 0 0

-0.73605 -7.54838 0
7.18356 1.80468 0
0 0 0

-1.28044 -6.20386 0
7.58221 0.788149 0
0 0 0

-2.23055 -5.58245 0
7.35764 0.257443 0
0 0 0

-1.88551 -7.04886 0
7.13764 1.19245 0
0 0 0

-1.05446 -5.43612 0
6.87097 0.176808 0
0 0 0

-0.707671 -6.65723 0
6.48773 1.17204 0
0 0 0

-0.240402 -9.18708 0
7.14952 1.54945 0
0 0 0

0.270247 -13.0665 0
7.24007 0.861571 0
0 0 0

1.1338 -6.23543 0
7.19283 0.564836 0
0 0 0

1.88416 -4.06438 0
7.43392 0.839981 0
0 0 0

-0.00439661 -13.1194 0
5.28951 0.796745 0
0 0 0

-0.533697 -6.05946 0
5.31245 0.732575 0
0 0 0

0.215696 -2.66582 0
6.23455 1.20609 0
0 0 0

0.118843 -3.77914 0
5.99416 0.442488 0
0 0 0

-1.34684 -6.94277 0
7.46178 -0.517979 0
0 0 0

-1.78755 -6.88352 0
6.89015 1.16862 0
0 0 0

-0.701965 -6.27825 0
5.47842 -2.50096 0
0 0 0

-1.45676 -6.73592 0
4.7146 0.197852 0
0 0 0

-1.29743 -7.152 0
6.80458 3.12935 0
0 0 0

-0.88499 -6.77912 0
7.74747 2.08604 0
0 0 0

-1.34298 -7.10883 0
3.96624 2.65045 0
0 0 0

-1.36578 -5.84193 0
9.40533 2.68103 0
0 0 0

-0.655244 -6.16556 0
7.83897 0.529757 0
0 0 0

0.149722 -4.53663 0
6.88213 0.68974 0
0 0 0

-1.40418 -2.70386 0
9.74988 1.17712 0
0 0 0

-1.08925 -1.55334 0
6.77245 -0.0883336 0
0 0 0

-0.575321 -2.74504 0
6.64255 1.25787 0
0 0 0

1.31102 -2.73166 0
6.47154 0.220449 0
0 0 0

-0.714489 -2.55585 0
7.27373 -1.57686 0
0 0 0

0.366425 -2.72014 0
4.1933 -1.34948 0
0 0 0

-0.339743 -3.78733 0
3.10527 -0.669209 0
0 0 0

-1.20487 -1.29959 0
2.99519 1.9006 0
0 0 0

-1.11032 -1.37021 0
3.13212 2.74527 0
0 0 0

-1.25443 -0.508349 0
2.91215 2.37501 0
0 0 0

-1.18939 -0.387365 0
2.81981 2.66836 0
0 0 0

-1.29693 -0.434932 0
9.23233 2.67267 0
0 0 0

-1.18534 -0.385974 0
2.5133 2.56319 0
0 0 0

-1.16858 -0.401116 0
4.35407 2.79679 0
0 0 0

-1.26056 -0.635545 0
10.8992 1.63522 0
0 0 0

-0.283233 -1.02667 0
9.03582 0.457046 0
0 0 0

-0.933937 -3.52394 0
11.9301 0.507031 0
0 0 0

-0.498648 -7.39186 0
11.69 -1.63621 0
0 0 0

0.418116 -2.13365 0
8.73779 -1.0311 0
0 0 0

-0.276262 -3.46167 0
4.57721 -1.61418 0
0 0 0

0.688346 -7.79428 0
9.04894 -1.4048 0
0 0 0

0.109069 -7.11313 0
7.84127 -0.506212 0
0 0 0

-1.96295 -2.56223 0
3.53774 2.66798 0
0 0 0

-2.07573 -4.46018 0
3.59014 1.95006 0
0 0 0

-2.09342 -6.06925 0
3.59142 1.66723 0
0 0 0

-2.06633 -6.15779 0
3.57537 1.71967 0
0 0 0

-1.28668 -6.06019 0
2.72401 1.17641 0
0 0 0

-1.34604 -5.79943 0
2.95259 0.172226 0
0 0 0

-1.54881 -6.10648 0
3.73343 1.35468 0
0 0 0

-1.59782 -5.84387 0
3.92217 0.343377 0
0 0 0

0.0815513 -6.54131 0
12.7945 -0.831414 0
0 0 0

0.519898 -7.7301 0
13.1118 -1.69187 0
0 0 0

1.393 -6.68278 0
13.8249 -0.413698 0
0 0 0

1.7776 -8.45949 0
14.2802 -1.55093 0
0 0 0

0.0909805 -7.96735 0
8.20841 -1.64833 0
0 0 0

-0.0620841 -7.34085 0
7.99304 -0.766199 0
0 0 0

-0.487959 -8.96394 0
7.39448 -2.49065 0
0 0 0

-0.624341 -8.42407 0
7.20292 -1.73235 0
0 0 0

SCALARS active double 1
LOOKUP_TABLE default
1
1
1
1
1
1
1
1
1
1
1
1
1
1
1
1
1
1
1
1
1
1
1
1
1
1
1
1
1
1
1
1
1
1
1
1
1
1
1
1
1
1
1
1
1
1
1
1
1
1
1
1
1
1
1
1
1
1
1
1
1
1
1
1
SCALARS extent double 1
LOOKUP_TABLE default
0.0125
0.0125
0.0125
0.0125
0.0125
0.0125
0.0125
0.0125
0.0125
0.0125
0.0125
0.0125
0.0125
0.0125
0.0125
0.0125
0.0125
0.0125
0.0125
0.0125
0.0125
0.0125
0.0125
0.0125
0.0125
0.0125
0.0125
0.0125
0.0125
0.0125
0.0125
0.0125
0.0125
0.0125
0.0125
0.0125
0.0125
0.0125
0.0125
0.0125
0.0125
0.0125
0.0125
0.0125
0.0125
0.0125
0.0125
0.0125
0.0125
0.0125
0.0125
0.0125
0.0125
0.0125
0.0125
0.0125
0.0125
0.0125
0.0125
0.0125
0.0125
0.0125
0.0125
0.0125
SCALARS pressure double 1
LOOKUP_TABLE default
-5953.92
4773.22
557.288
446.508
-2280.43
-2429.32
3074.28
576.948
604.088
-4885.96
4965.9
3993.36
-546.996
1679.75
-2251.41
-2207.05
4432.72
281.988
-5392.68
-3942.46
2348.42
-5107.41
6079.79
4787.92
-4673.66
4684.96
-108.941
-1939.69
-1950.78
1299.15
2636.42
2256.97
-3166.75
-489.94
461.278
1926.8
-806.294
-940.507
41.3992
4762.6
-3721.48
-3010.3
3648.04
3436.89
166.07
-227.705
-2763.6
1131.12
-790.334
-3532.21
-625.676
316.457
-694.008
592.939
-531.695
1701.32
-1313.62
-2051.52
-1204.04
1772.97
-275.351
3607.19
-1805.47
-825.308
SCALARS density double 1
LOOKUP_TABLE default
931.046
1058.95
1006.71
1005.37
973.006
971.269
1037.58
1006.95
1007.28
943.054
1061.4
1049.09
993.458
1020.36
973.345
973.863
1054.63
1003.39
937.337
953.792
1028.58
940.551
1075.68
1059.14
945.46
1057.83
998.694
976.992
976.863
1015.71
1032.14
1027.45
962.712
994.138
1005.55
1023.39
990.371
988.777
1000.5
1058.82
956.325
964.521
1044.75
1042.1
1001.99
997.271
967.381
1013.67
990.561
958.499
992.52
1003.8
991.706
1007.14
993.64
1020.63
984.36
975.682
985.655
1021.5
996.701
1044.24
978.567
990.145
