# vtk DataFile Version 3.0
Frame: 32, Time: 0.534
ASCII
DATASET UNSTRUCTURED_GRID
POINTS 64 double
0.4268 0.0793592 0 
0.405726 0.0922512 0 
0.438793 0.101686 0 
0.416294 0.115666 0 
0.383356 0.104163 0 
0.35965 0.116169 0 
0.39473 0.126383 0 
0.372485 0.137069 0 
0.338085 0.129287 0 
0.314997 0.141069 0 
0.351412 0.151323 0 
0.329351 0.162265 0 
0.294344 0.157364 0 
0.274357 0.170664 0 
0.308054 0.177849 0 
0.287461 0.191009 0 
0.449315 0.123725 0 
0.427091 0.137494 0 
0.464191 0.141041 0 
0.441528 0.155429 0 
0.405793 0.148447 0 
0.38508 0.159585 0 
0.421311 0.16753 0 
0.401113 0.179349 0 
0.364224 0.172894 0 
0.342021 0.182092 0 
0.379909 0.193051 0 
0.357181 0.203601 0 
0.322277 0.197363 0 
0.3015 0.21472 0 
0.336748 0.21831 0 
0.317688 0.234366 0 
0.479173 0.160456 0 
0.456767 0.173387 0 
0.492057 0.180803 0 
0.470445 0.194398 0 
0.436166 0.186324 0 
0.415052 0.200444 0 
0.450782 0.207424 0 
0.429712 0.222203 0 
0.393412 0.214476 0 
0.371595 0.22478 0 
0.406846 0.235782 0 
0.387626 0.247284 0 
0.351338 0.238688 0 
0.33242 0.254268 0 
0.368112 0.261437 0 
0.345879 0.275913 0 
0.506599 0.198759 0 
0.484937 0.213343 0 
0.519154 0.219937 0 
0.499836 0.234826 0 
0.466644 0.228455 0 
0.44474 0.241521 0 
0.480304 0.250824 0 
0.458149 0.263833 0 
0.422758 0.255313 0 
0.403925 0.269612 0 
0.437633 0.277945 0 
0.417329 0.292165 0 
0.383136 0.282255 0 
0.359262 0.295376 0 
0.395121 0.303305 0 
0.373322 0.316065 0 
CELLS 64 128
1 0
1 1
1 2
1 3
1 4
1 5
1 6
1 7
1 8
1 9
1 10
1 11
1 12
1 13
1 14
1 15
1 16
1 17
1 18
1 19
1 20
1 21
1 22
1 23
1 24
1 25
1 26
1 27
1 28
1 29
1 30
1 31
1 32
1 33
1 34
1 35
1 36
1 37
1 38
1 39
1 40
1 41
1 42
1 43
1 44
1 45
1 46
1 47
1 48
1 49
1 50
1 51
1 52
1 53
1 54
1 55
1 56
1 57
1 58
1 59
1 60
1 61
1 62
1 63
CELL_TYPES 64
1
1
1
1
1
1
1
1
1
1
1
1
1
1
1
1
1
1
1
1
1
1
1
1
1
1
1
1
1
1
1
1
1
1
1
1
1
1
1
1
1
1
1
1
1
1
1
1
1
1
1
1
1
1
1
1
1
1
1
1
1
1
1
1
POINT_DATA 64
VECTORS displacement double
0.0143005 -0.333141 0 
-0.00677352 -0.345249 0 
0.00129329 -0.310814 0 
-0.0212057 -0.321834 0 
-0.0291445 -0.358337 0 
-0.0528505 -0.371331 0 
-0.0427701 -0.336117 0 
-0.0650148 -0.350431 0 
-0.0744153 -0.383213 0 
-0.0975033 -0.396431 0 
-0.086088 -0.361177 0 
-0.108149 -0.375235 0 
-0.118156 -0.405136 0 
-0.138143 -0.416836 0 
-0.129446 -0.384651 0 
-0.150039 -0.396491 0 
-0.0131848 -0.288775 0 
-0.0354088 -0.300006 0 
-0.0233088 -0.271459 0 
-0.0459721 -0.282071 0 
-0.0567069 -0.314053 0 
-0.0774198 -0.327915 0 
-0.0661889 -0.29497 0 
-0.086387 -0.308151 0 
-0.0982759 -0.339606 0 
-0.120479 -0.355408 0 
-0.107591 -0.319449 0 
-0.130319 -0.333899 0 
-0.140223 -0.365137 0 
-0.161 -0.37278 0 
-0.150752 -0.34419 0 
-0.169812 -0.353134 0 
-0.0333268 -0.252044 0 
-0.055733 -0.264113 0 
-0.0454428 -0.231697 0 
-0.0670546 -0.243102 0 
-0.0763343 -0.276176 0 
-0.0974484 -0.287056 0 
-0.0867184 -0.255076 0 
-0.107788 -0.265297 0 
-0.119088 -0.298024 0 
-0.140905 -0.31272 0 
-0.130654 -0.276718 0 
-0.149874 -0.290216 0 
-0.161162 -0.323812 0 
-0.18008 -0.333232 0 
-0.169388 -0.301063 0 
-0.191621 -0.311587 0 
-0.0559012 -0.213741 0 
-0.0775635 -0.224157 0 
-0.0683457 -0.192563 0 
-0.0876635 -0.202674 0 
-0.0958555 -0.234045 0 
-0.11776 -0.245979 0 
-0.107196 -0.211676 0 
-0.129351 -0.223667 0 
-0.139742 -0.257187 0 
-0.158575 -0.267888 0 
-0.149867 -0.234555 0 
-0.170171 -0.245335 0 
-0.179364 -0.280245 0 
-0.203238 -0.292124 0 
-0.192379 -0.259195 0 
-0.214178 -0.271435 0 
VECTORS velocity double
0.582116 -0.263256 0 
-0.0425202 -1.07955 0 
0.458444 0.132169 0 
-0.723044 -0.11877 0 
0.95508 -1.15167 0 
-0.160764 -0.849894 0 
0.0727947 -0.647375 0 
-0.324571 -0.682575 0 
0.524929 -1.31047 0 
-0.126007 -1.24074 0 
-0.389867 -0.765822 0 
-0.467814 -0.821264 0 
0.0240839 -1.38087 0 
0.121975 -1.63672 0 
-0.149807 -1.06359 0 
-0.89305 -1.40582 0 
0.0288425 0.00448299 0 
-0.569805 -0.0944211 0 
-0.0298346 -0.265852 0 
-0.484057 -0.340965 0 
-0.0577732 -0.565834 0 
-0.424497 -0.767428 0 
-0.2629 -0.505702 0 
-0.583278 -0.693473 0 
-0.650995 -0.935477 0 
-0.650999 -1.22984 0 
-0.179368 -0.872924 0 
0.0330889 -1.09999 0 
-0.0617572 -0.881574 0 
-0.535659 -1.05128 0 
0.258042 -0.266017 0 
-0.441806 -1.16221 0 
0.181067 0.426299 0 
-0.246767 -0.149224 0 
-0.498357 0.230473 0 
-0.489675 0.215049 0 
-0.325772 -0.259324 0 
-0.248914 -0.115783 0 
-0.929814 -0.49579 0 
-0.782885 -0.246417 0 
0.339117 -0.212017 0 
-0.0764991 -0.759455 0 
-0.545774 0.0780874 0 
-1.24086 -0.386104 0 
-0.709745 -1.03897 0 
-0.828392 -1.48059 0 
-1.11465 -0.221568 0 
-0.514609 -0.227274 0 
-0.399352 0.494515 0 
-0.455885 0.15011 0 
-0.567488 0.491105 0 
-0.826091 -0.0575525 0 
-0.450027 -0.434999 0 
-0.218229 -0.0545064 0 
-0.890973 0.392902 0 
-0.793303 0.354883 0 
-0.612008 -0.138338 0 
-1.05627 -0.633149 0 
-1.12075 -0.33335 0 
-0.890776 0.107621 0 
-0.252687 -0.511333 0 
-1.07046 -1.11091 0 
-0.908822 0.0103309 0 
-1.61758 -0.677016 0 
SCALARS mass double 1
LOOKUP_TABLE default
0.625
0.625
0.625
0.625
0.625
0.625
0.625
0.625
0.625
0.625
0.625
0.625
0.625
0.625
0.625
0.625
0.625
0.625
0.625
0.625
0.625
0.625
0.625
0.625
0.625
0.625
0.625
0.625
0.625
0.625
0.625
0.625
0.625
0.625
0.625
0.625
0.625
0.625
0.625
0.625
0.625
0.625
0.625
0.625
0.625
0.625
0.625
0.625
0.625
0.625
0.625
0.625
0.625
0.625
0.625
0.625
0.625
0.625
0.625
0.625
0.625
0.625
0.625
0.625
SCALARS volume double 1
LOOKUP_TABLE default
0.000626165
0.000595904
0.00065046
0.000659712
0.000639733
0.00064243
0.000599132
0.000634247
0.000609408
0.00065225
0.000620895
0.000602074
0.000627088
0.000620158
0.000646393
0.000632854
0.000600294
0.000619548
0.000638508
0.000622578
0.000577187
0.000670613
0.000555587
0.000601717
0.000669658
0.00059153
0.000607362
0.000612367
0.000649197
0.000625987
0.000612616
0.000633422
0.000653749
0.000615027
0.000609797
0.000604347
0.000647563
0.000682534
0.000643154
0.000614768
0.000648333
0.000640165
0.000610181
0.000625442
0.000621637
0.000614472
0.000678718
0.000623599
0.000620991
0.000654216
0.000615851
0.000619808
0.000636668
0.000625939
0.000628562
0.000622709
0.000648096
0.000634628
0.000638054
0.000602053
0.000623725
0.000603153
0.000612429
0.0006361
VECTORS momentum double
0.363822 -0.164535 0 
-0.0265751 -0.674719 0 
0.286527 0.0826057 0 
-0.451903 -0.0742312 0 
0.596925 -0.719792 0 
-0.100477 -0.531184 0 
0.0454967 -0.40461 0 
-0.202857 -0.42661 0 
0.32808 -0.819044 0 
-0.0787545 -0.77546 0 
-0.243667 -0.478639 0 
-0.292384 -0.51329 0 
0.0150524 -0.863041 0 
0.0762343 -1.02295 0 
-0.0936293 -0.664741 0 
-0.558156 -0.878638 0 
0.0180266 0.00280187 0 
-0.356128 -0.0590132 0 
-0.0186467 -0.166157 0 
-0.302536 -0.213103 0 
-0.0361082 -0.353646 0 
-0.26531 -0.479643 0 
-0.164312 -0.316064 0 
-0.364549 -0.433421 0 
-0.406872 -0.584673 0 
-0.406875 -0.768653 0 
-0.112105 -0.545577 0 
0.0206806 -0.687492 0 
-0.0385983 -0.550984 0 
-0.334787 -0.65705 0 
0.161276 -0.166261 0 
-0.276129 -0.726381 0 
0.113167 0.266437 0 
-0.154229 -0.0932652 0 
-0.311473 0.144045 0 
-0.306047 0.134405 0 
-0.203607 -0.162077 0 
-0.155571 -0.0723645 0 
-0.581134 -0.309869 0 
-0.489303 -0.154011 0 
0.211948 -0.132511 0 
-0.0478119 -0.474659 0 
-0.341109 0.0488046 0 
-0.775537 -0.241315 0 
-0.443591 -0.649354 0 
-0.517745 -0.925367 0 
-0.696655 -0.13848 0 
-0.321631 -0.142046 0 
-0.249595 0.309072 0 
-0.284928 0.0938187 0 
-0.35468 0.306941 0 
-0.516307 -0.0359703 0 
-0.281267 -0.271874 0 
-0.136393 -0.0340665 0 
-0.556858 0.245563 0 
-0.495814 0.221802 0 
-0.382505 -0.086461 0 
-0.660172 -0.395718 0 
-0.700468 -0.208344 0 
-0.556735 0.0672629 0 
-0.157929 -0.319583 0 
-0.669039 -0.69432 0 
-0.568014 0.00645681 0 
-1.01099 -0.423135 0 
VECTORS body_force double
0 -9.81 0 
0 -9.81 0 
0 -9.81 0 
0 -9.81 0 
0 -9.81 0 
0 -9.81 0 
0 -9.81 0 
0 -9.81 0 
0 -9.81 0 
0 -9.81 0 
0 -9.81 0 
0 -9.81 0 
0 -9.81 0 
0 -9.81 0 
0 -9.81 0 
0 -9.81 0 
0 -9.81 0 
0 -9.81 0 
0 -9.81 0 
0 -9.81 0 
0 -9.81 0 
0 -9.81 0 
0 -9.81 0 
0 -9.81 0 
0 -9.81 0 
0 -9.81 0 
0 -9.81 0 
0 -9.81 0 
0 -9.81 0 
0 -9.81 0 
0 -9.81 0 
0 -9.81 0 
0 -9.81 0 
0 -9.81 0 
0 -9.81 0 
0 -9.81 0 
0 -9.81 0 
0 -9.81 0 
0 -9.81 0 
0 -9.81 0 
0 -9.81 0 
0 -9.81 0 
0 -9.81 0 
0 -9.81 0 
0 -9.81 0 
0 -9.81 0 
0 -9.81 0 
0 -9.81 0 
0 -9.81 0 
0 -9.81 0 
0 -9.81 0 
0 -9.81 0 
0 -9.81 0 
0 -9.81 0 
0 -9.81 0 
0 -9.81 0 
0 -9.81 0 
0 -9.81 0 
0 -9.81 0 
0 -9.81 0 
0 -9.81 0 
0 -9.81 0 
0 -9.81 0 
0 -9.81 0 
TENSORS cauchy_stress double
4393.17 3249.74 0
3249.74 -4035.05 0
0 0 107.436

-11538.2 -2231.12 0
-2231.12 2370.46 0
0 0 -2750.33

5996.59 3392.15 0
3392.15 1681.89 0
0 0 2303.54

5710.95 385.695 0
385.695 4683.63 0
0 0 3118.37

2403.22 -1570.36 0
-1570.36 2077.28 0
0 0 1344.15

3276.5 -5795.12 0
-5795.12 2013.12 0
0 0 1586.89

49.1612 6948.82 0
6948.82 -8177.89 0
0 0 -2438.62

-4254.98 -2702.34 0
-2702.34 7079.33 0
0 0 847.305

-3350.12 -555.295 0
-555.295 -1508.21 0
0 0 -1457.5

6457.99 64.3663 0
64.3663 1749.07 0
0 0 2462.12

-2144.8 -693.185 0
-693.185 877.599 0
0 0 -380.16

-5246.32 -147.677 0
-147.677 -1940.32 0
0 0 -2155.99

1677.95 416.077 0
416.077 -1036.52 0
0 0 192.43

-2875.49 -609.194 0
-609.194 1379.94 0
0 0 -448.665

1139.25 -2568.72 0
-2568.72 5333.12 0
0 0 1941.71

473.189 1650.98 0
1650.98 1928.4 0
0 0 720.476

-3673.46 1925.87 0
1925.87 -4082.57 0
0 0 -2326.81

-382.826 -5500.11 0
-5500.11 -1302.02 0
0 0 -505.454

3024.21 -2771.84 0
-2771.84 1087.9 0
0 0 1233.63

624.944 -4265.57 0
-4265.57 -1371.47 0
0 0 -223.958

-2009.22 6416.34 0
6416.34 -13295.8 0
0 0 -4591.49

-417.722 3140.23 0
3140.23 13964 0
0 0 4063.89

-2662.63 5511.42 0
5511.42 -19976.9 0
0 0 -6791.87

-4679.29 -634.094 0
-634.094 -2621.65 0
0 0 -2190.28

1846.47 4312.68 0
4312.68 11425.7 0
0 0 3981.64

-2267.71 8146.48 0
8146.48 -8316.7 0
0 0 -3175.32

2587.2 3244.27 0
3244.27 -8092.44 0
0 0 -1651.57

4812.77 1937.02 0
1937.02 -8739.63 0
0 0 -1178.06

4376.66 -3260.69 0
-3260.69 2928.04 0
0 0 2191.41

2344.19 1627.03 0
1627.03 -2040.88 0
0 0 90.9917

-2131.1 -274.237 0
-274.237 -1717.76 0
0 0 -1154.66

2328.9 836.548 0
836.548 245.128 0
0 0 772.21

1442.93 2020.51 0
2020.51 7205.62 0
0 0 2594.56

-2129.83 -1694.31 0
-1694.31 -963.615 0
0 0 -928.034

-3789.38 -1675.6 0
-1675.6 -946.236 0
0 0 -1420.68

-4587.65 -231.533 0
-231.533 -1874.34 0
0 0 -1938.6

4619.92 231.443 0
231.443 2200.11 0
0 0 2046.01

579.335 -2008.83 0
-2008.83 16355.3 0
0 0 5080.4

4498.23 425.984 0
425.984 1008.12 0
0 0 1651.91

6167.29 -716.74 0
-716.74 -9341.52 0
0 0 -952.27

966.309 -4151.39 0
-4151.39 6082.37 0
0 0 2114.6

-5551.56 -1697.38 0
-1697.38 10162 0
0 0 1383.15

8542.38 4802.41 0
4802.41 -13157 0
0 0 -1384.38

4082.91 9324.97 0
9324.97 -3946.82 0
0 0 40.8269

-7287.45 364.923 0
364.923 6250.01 0
0 0 -311.234

-1410.58 790.063 0
790.063 -1856.4 0
0 0 -980.093

14214.5 2710.76 0
2710.76 1641.89 0
0 0 4756.93

-541.694 -2272.13 0
-2272.13 110.209 0
0 0 -129.445

491.488 -639.025 0
-639.025 -1729.12 0
0 0 -371.289

5488.45 51.626 0
51.626 3297.29 0
0 0 2635.72

-1250.65 593.315 0
593.315 -1585.34 0
0 0 -850.8

-1203.98 -1296.01 0
-1296.01 -400.232 0
0 0 -481.264

4450.35 1143.16 0
1143.16 -893.191 0
0 0 1067.15

-1582.21 2407.57 0
2407.57 1870.87 0
0 0 86.5998

1761.48 -1992.44 0
-1992.44 -668.746 0
0 0 327.821

-2285.51 2501.95 0
2501.95 1579.33 0
0 0 -211.853

3228.42 442.126 0
442.126 3749.94 0
0 0 2093.51

-6388.9 2223.05 0
2223.05 9328.82 0
0 0 881.976

5595.32 -0.990338 0
-0.990338 -1620.18 0
0 0 1192.54

-861.472 -1537.53 0
-1537.53 -6331.94 0
0 0 -2158.02

-450.432 -2156.76 0
-2156.76 57.5769 0
0 0 -117.857

-4414.26 -4832.16 0
-4832.16 -2428.33 0
0 0 -2052.78

1351.51 2729.57 0
2729.57 -5258.8 0
0 0 -1172.19

-713.574 127.137 0
127.137 4099.11 0
0 0 1015.66

TENSORS velocity_gradient double
1.95111 -8.23712 0
6.83554 1.70874 0
0 0 0

0.107464 -5.35926 0
9.52516 -2.73707 0
0 0 0

-0.432101 -7.85905 0
10.4619 1.00288 0
0 0 0

-0.343691 -7.48729 0
10.0716 0.831796 0
0 0 0

-0.579475 -7.37629 0
6.71347 1.20924 0
0 0 0

-0.768541 -7.41003 0
6.87166 1.28185 0
0 0 0

-0.838534 -7.91134 0
7.23887 1.85539 0
0 0 0

-1.07947 -7.60461 0
7.23836 1.51133 0
0 0 0

-0.796053 -6.77165 0
5.3882 0.768055 0
0 0 0

-1.29238 -5.81118 0
5.73347 0.0998987 0
0 0 0

-1.17632 -3.05466 0
6.87563 1.10562 0
0 0 0

-0.76677 -2.33938 0
5.82911 1.22618 0
0 0 0

-2.21412 -4.60736 0
5.78882 1.44242 0
0 0 0

-1.36857 -5.97354 0
5.94165 1.21474 0
0 0 0

0.235557 -3.69764 0
5.67559 1.43421 0
0 0 0

0.0189958 -5.06681 0
6.1808 1.37102 0
0 0 0

-0.330389 -6.16285 0
6.96676 -0.82544 0
0 0 0

0.35805 -7.13328 0
8.52312 0.0506432 0
0 0 0

1.49798 -4.63436 0
6.91945 0.978546 0
0 0 0

0.0809936 -4.52562 0
7.46841 0.175413 0
0 0 0

0.318664 -4.75151 0
7.8181 1.52361 0
0 0 0

-1.00671 -0.15505 0
7.59021 1.50062 0
0 0 0

-1.23371 -2.1849 0
7.02869 0.939785 0
0 0 0

-1.76487 -0.274338 0
7.09338 1.53091 0
0 0 0

-0.672439 -0.673639 0
7.77082 1.22043 0
0 0 0

0.494097 -1.52716 0
5.63599 1.10178 0
0 0 0

-0.175259 -0.283451 0
8.03945 1.43125 0
0 0 0

-0.320069 -5.76162 0
8.27651 2.23597 0
0 0 0

1.23672 -3.66443 0
5.53513 1.51236 0
0 0 0

0.161424 -4.16981 0
4.20262 2.32493 0
0 0 0

0.829378 -5.71701 0
5.69117 2.04802 0
0 0 0

0.200931 -4.97842 0
5.87683 1.82982 0
0 0 0

2.13241 -6.62896 0
8.46018 -0.166098 0
0 0 0

1.55299 -5.64488 0
8.41092 -0.0824446 0
0 0 0

1.23853 -7.20312 0
8.38419 -0.214907 0
0 0 0

0.631949 -6.13623 0
8.30655 -0.0904022 0
0 0 0

-3.30349 -3.84073 0
6.37366 0.415758 0
0 0 0

-4.09041 -4.66487 0
5.90622 2.39123 0
0 0 0

-1.50491 -3.62739 0
6.9003 2.18599 0
0 0 0

-2.26373 -5.42631 0
5.31685 2.9508 0
0 0 0

-0.809848 -8.50228 0
8.57299 3.54851 0
0 0 0

-1.34651 -7.3698 0
8.90958 2.87746 0
0 0 0

-0.727116 -7.99359 0
4.9599 3.54717 0
0 0 0

-2.29728 -7.15477 0
9.41869 2.32751 0
0 0 0

-1.33467 -6.34403 0
8.14161 2.29598 0
0 0 0

-0.702052 -5.90633 0
5.68841 3.27506 0
0 0 0

-1.9582 -5.94595 0
8.94703 1.22364 0
0 0 0

-1.82455 -6.61909 0
5.249 2.56447 0
0 0 0

-0.662476 -5.59764 0
4.2053 -0.451088 0
0 0 0

-0.130072 -4.57824 0
7.21415 -0.507554 0
0 0 0

1.54253 -3.42675 0
5.08465 -0.955648 0
0 0 0

1.09239 -4.73619 0
5.55803 -1.34269 0
0 0 0

-0.720426 -3.87128 0
5.95184 1.00408 0
0 0 0

-0.250557 -3.8459 0
4.82109 2.50888 0
0 0 0

-0.853733 -2.51694 0
4.53538 0.910715 0
0 0 0

0.798264 -4.79284 0
4.72324 0.844521 0
0 0 0

0.549105 -5.24749 0
4.73982 0.0779229 0
0 0 0

-0.18569 -4.47231 0
5.47028 -0.481373 0
0 0 0

-0.342851 -5.819 0
5.23544 0.224255 0
0 0 0

-0.946515 -4.96635 0
5.56201 -0.237023 0
0 0 0

-0.799781 -5.09662 0
7.70341 0.311839 0
0 0 0

-0.107272 -7.38598 0
7.03019 1.00297 0
0 0 0

-0.113911 -10.034 0
6.92838 -0.353649 0
0 0 0

0.326935 -11.6631 0
7.54037 -1.65954 0
0 0 0

SCALARS active double 1
LOOKUP_TABLE default
1
1
1
1
1
1
1
1
1
1
1
1
1
1
1
1
1
1
1
1
1
1
1
1
1
1
1
1
1
1
1
1
1
1
1
1
1
1
1
1
1
1
1
1
1
1
1
1
1
1
1
1
1
1
1
1
1
1
1
1
1
1
1
1
SCALARS extent double 1
LOOKUP_TABLE default
0.0125
0.0125
0.0125
0.0125
0.0125
0.0125
0.0125
0.0125
0.0125
0.0125
0.0125
0.0125
0.0125
0.0125
0.0125
0.0125
0.0125
0.0125
0.0125
0.0125
0.0125
0.0125
0.0125
0.0125
0.0125
0.0125
0.0125
0.0125
0.0125
0.0125
0.0125
0.0125
0.0125
0.0125
0.0125
0.0125
0.0125
0.0125
0.0125
0.0125
0.0125
0.0125
0.0125
0.0125
0.0125
0.0125
0.0125
0.0125
0.0125
0.0125
0.0125
0.0125
0.0125
0.0125
0.0125
0.0125
0.0125
0.0125
0.0125
0.0125
0.0125
0.0125
0.0125
0.0125
SCALARS pressure double 1
LOOKUP_TABLE default
-155.185
3972.69
-3327.34
-4504.32
-1941.55
-2292.17
3522.45
-1223.88
2105.28
-3556.4
549.12
3114.21
-277.954
648.071
-2804.69
-1040.69
3360.94
730.101
-1781.92
323.495
6632.16
-5870.06
9810.47
3163.74
-5751.26
4586.58
2385.6
1701.64
-3165.37
-131.432
1667.84
-1115.41
-3747.7
1340.49
2052.1
2800.19
-2955.35
-7338.36
-2386.09
1375.5
-3054.43
-1997.88
1999.66
-58.9723
449.56
1415.69
-6871.12
186.977
536.306
-3807.15
1228.93
695.158
-1541.44
-125.089
-473.52
306.01
-3023.96
-1273.97
-1722.56
3117.14
170.237
2965.12
1693.16
-1467.06
SCALARS density double 1
LOOKUP_TABLE default
998.14
1048.83
960.859
947.383
976.971
972.869
1043.18
985.421
1025.59
958.221
1006.61
1038.08
996.67
1007.81
966.904
987.589
1041.16
1008.8
978.844
1003.89
1082.84
931.983
1124.94
1038.69
933.313
1056.58
1029.04
1020.63
962.728
998.424
1020.22
986.704
956.024
1016.22
1024.93
1034.17
965.157
915.706
971.773
1016.64
964.01
976.311
1024.29
999.293
1005.41
1017.13
920.854
1002.25
1006.46
955.342
1014.86
1008.38
981.673
998.5
994.334
1003.68
964.363
984.829
979.541
1038.11
1002.04
1036.22
1020.53
982.549
