# vtk DataFile Version 3.0
Frame: 20, Time: 0.334
ASCII
DATASET UNSTRUCTURED_GRID
POINTS 64 double
0.51568 0.192606 0 
0.524418 0.210927 0 
0.53861 0.183139 0 
0.549102 0.201572 0 
0.529102 0.229563 0 
0.532614 0.248789 0 
0.555374 0.221261 0 
0.559066 0.242284 0 
0.535775 0.269458 0 
0.539035 0.291626 0 
0.56256 0.264269 0 
0.565287 0.286544 0 
0.542628 0.314789 0 
0.547197 0.33878 0 
0.568219 0.309564 0 
0.572531 0.333292 0 
0.561418 0.170323 0 
0.57198 0.189219 0 
0.584803 0.153406 0 
0.594554 0.174869 0 
0.580391 0.208863 0 
0.584316 0.230644 0 
0.604289 0.195706 0 
0.609235 0.217864 0 
0.588097 0.25354 0 
0.591191 0.276716 0 
0.61292 0.24132 0 
0.616276 0.265416 0 
0.59435 0.300435 0 
0.598842 0.32436 0 
0.619838 0.289849 0 
0.624749 0.314438 0 
0.607882 0.13844 0 
0.61736 0.160681 0 
0.630228 0.125399 0 
0.640713 0.147391 0 
0.627307 0.182527 0 
0.633727 0.205015 0 
0.650615 0.169938 0 
0.657586 0.193015 0 
0.637388 0.229499 0 
0.640722 0.254428 0 
0.661436 0.218365 0 
0.664836 0.244173 0 
0.644284 0.27925 0 
0.649211 0.304321 0 
0.6683 0.269551 0 
0.672761 0.295059 0 
0.653649 0.115481 0 
0.664376 0.137545 0 
0.677831 0.105548 0 
0.688257 0.129001 0 
0.674139 0.161655 0 
0.681284 0.186685 0 
0.697901 0.15515 0 
0.704908 0.182238 0 
0.685415 0.212691 0 
0.688989 0.238591 0 
0.70937 0.209117 0 
0.713253 0.235135 0 
0.692078 0.263923 0 
0.695692 0.289274 0 
0.716168 0.260346 0 
0.719134 0.285452 0 
CELLS 64 128
1 0
1 1
1 2
1 3
1 4
1 5
1 6
1 7
1 8
1 9
1 10
1 11
1 12
1 13
1 14
1 15
1 16
1 17
1 18
1 19
1 20
1 21
1 22
1 23
1 24
1 25
1 26
1 27
1 28
1 29
1 30
1 31
1 32
1 33
1 34
1 35
1 36
1 37
1 38
1 39
1 40
1 41
1 42
1 43
1 44
1 45
1 46
1 47
1 48
1 49
1 50
1 51
1 52
1 53
1 54
1 55
1 56
1 57
1 58
1 59
1 60
1 61
1 62
1 63
CELL_TYPES 64
1
1
1
1
1
1
1
1
1
1
1
1
1
1
1
1
1
1
1
1
1
1
1
1
1
1
1
1
1
1
1
1
1
1
1
1
1
1
1
1
1
1
1
1
1
1
1
1
1
1
1
1
1
1
1
1
1
1
1
1
1
1
1
1
POINT_DATA 64
VECTORS displacement double
0.00318015 -0.419894 0 
0.0119183 -0.426573 0 
0.00110988 -0.429361 0 
0.0116018 -0.435928 0 
0.0166018 -0.432937 0 
0.0201141 -0.438711 0 
0.0178737 -0.441239 0 
0.0215655 -0.445216 0 
0.0232753 -0.443042 0 
0.026535 -0.445874 0 
0.0250601 -0.448231 0 
0.0277869 -0.450956 0 
0.0301284 -0.447711 0 
0.0346972 -0.44872 0 
0.0307192 -0.452936 0 
0.0350313 -0.454208 0 
-0.00108155 -0.442177 0 
0.00947955 -0.448281 0 
-0.00269703 -0.459094 0 
0.00705442 -0.462631 0 
0.0178907 -0.453637 0 
0.0218164 -0.456856 0 
0.0167886 -0.466794 0 
0.0217354 -0.469636 0 
0.0255974 -0.45896 0 
0.0286907 -0.460784 0 
0.0254196 -0.47118 0 
0.0287764 -0.472084 0 
0.0318497 -0.462065 0 
0.0363416 -0.46314 0 
0.0323383 -0.472651 0 
0.0372486 -0.473062 0 
-0.00461773 -0.47406 0 
0.00486022 -0.476819 0 
-0.00727238 -0.487101 0 
0.00321345 -0.490109 0 
0.0148071 -0.479973 0 
0.0212267 -0.482485 0 
0.0131148 -0.492562 0 
0.0200861 -0.494485 0 
0.0248882 -0.483001 0 
0.0282225 -0.483072 0 
0.0239356 -0.494135 0 
0.0273355 -0.493327 0 
0.0317838 -0.48325 0 
0.0367108 -0.483179 0 
0.0307997 -0.492949 0 
0.035261 -0.492441 0 
-0.00885132 -0.497019 0 
0.00187551 -0.499955 0 
-0.00966868 -0.506952 0 
0.000757403 -0.508499 0 
0.0116391 -0.500845 0 
0.0187839 -0.500815 0 
0.0104011 -0.50735 0 
0.0174082 -0.505262 0 
0.0229151 -0.499809 0 
0.0264894 -0.498909 0 
0.0218701 -0.503383 0 
0.025753 -0.502365 0 
0.0295775 -0.498577 0 
0.0331923 -0.498226 0 
0.0286683 -0.502154 0 
0.0316339 -0.502048 0 
VECTORS velocity double
-0.096687 1.38596 0 
1.82372 1.49153 0 
-0.589993 1.2147 0 
1.31903 1.03172 0 
2.29959 1.64096 0 
2.35692 1.8649 0 
1.95317 1.2752 0 
2.01256 1.64881 0 
2.48617 1.95427 0 
2.81764 1.98317 0 
2.11061 1.87551 0 
2.36305 1.81207 0 
3.2103 2.21417 0 
3.99162 2.26201 0 
2.72043 1.8371 0 
3.67342 1.7148 0 
-0.559054 0.854669 0 
0.6461 0.574112 0 
-0.692907 0.133769 0 
0.0584417 0.18151 0 
1.33129 0.738936 0 
1.56999 1.01247 0 
0.681077 0.40333 0 
1.0098 0.503436 0 
1.77191 1.20416 0 
2.09038 1.28922 0 
1.33354 0.519332 0 
1.69937 0.578195 0 
2.52287 1.45271 0 
3.77211 1.1268 0 
2.25831 0.925834 0 
3.75973 0.71005 0 
-1.15608 0.337604 0 
-0.284646 0.181345 0 
-1.61942 0.976365 0 
-0.460912 0.408465 0 
0.252443 0.280134 0 
0.455823 0.442832 0 
-0.0649191 0.181827 0 
0.0196462 0.104301 0 
0.972453 0.512922 0 
1.4207 0.456758 0 
0.583758 0.203928 0 
1.24658 0.190912 0 
1.90319 0.552324 0 
3.18995 0.368587 0 
1.749 0.13826 0 
2.67965 0.0315651 0 
-1.62316 0.525309 0 
-0.642991 -0.13901 0 
-2.0219 -1.03348 0 
-1.22833 -1.00585 0 
-0.176689 -0.179994 0 
0.00409643 -0.211935 0 
-0.61514 -0.526753 0 
-0.255683 -0.382438 0 
0.492927 -0.162555 0 
1.12963 -0.248307 0 
0.350519 -0.372302 0 
1.00621 -0.485185 0 
1.62891 -0.301897 0 
2.37367 -0.290873 0 
1.49975 -0.590225 0 
2.14763 -0.595247 0 
SCALARS mass double 1
LOOKUP_TABLE default
0.625
0.625
0.625
0.625
0.625
0.625
0.625
0.625
0.625
0.625
0.625
0.625
0.625
0.625
0.625
0.625
0.625
0.625
0.625
0.625
0.625
0.625
0.625
0.625
0.625
0.625
0.625
0.625
0.625
0.625
0.625
0.625
0.625
0.625
0.625
0.625
0.625
0.625
0.625
0.625
0.625
0.625
0.625
0.625
0.625
0.625
0.625
0.625
0.625
0.625
0.625
0.625
0.625
0.625
0.625
0.625
0.625
0.625
0.625
0.625
0.625
0.625
0.625
0.625
SCALARS volume double 1
LOOKUP_TABLE default
0.000503391
0.000540875
0.000508409
0.000542905
0.000521626
0.000551349
0.000565065
0.000590147
0.000602384
0.000606058
0.000612889
0.000609225
0.000621739
0.000628742
0.000634166
0.000650073
0.000602247
0.000576794
0.000673229
0.000626902
0.000581297
0.000600492
0.000590253
0.000622445
0.000625898
0.00061778
0.000652225
0.000639415
0.00066386
0.000674568
0.000663568
0.000652833
0.000608673
0.000656514
0.000634676
0.000663396
0.000603021
0.000625283
0.000633367
0.000630123
0.000637897
0.000625195
0.000659539
0.000649441
0.000643555
0.000644739
0.000637008
0.000629118
0.000621208
0.00063327
0.000646556
0.000665248
0.000638955
0.000626183
0.000683979
0.000667033
0.000636113
0.000633342
0.000647134
0.000640886
0.000613868
0.000600775
0.000620877
0.000616944
VECTORS momentum double
-0.0604294 0.866225 0 
1.13982 0.932209 0 
-0.368746 0.75919 0 
0.824393 0.644827 0 
1.43724 1.0256 0 
1.47307 1.16556 0 
1.22073 0.796998 0 
1.25785 1.03051 0 
1.55386 1.22142 0 
1.76102 1.23948 0 
1.31913 1.1722 0 
1.47691 1.13254 0 
2.00644 1.38386 0 
2.49476 1.41375 0 
1.70027 1.14819 0 
2.29589 1.07175 0 
-0.349408 0.534168 0 
0.403813 0.35882 0 
-0.433067 0.0836056 0 
0.0365261 0.113444 0 
0.832055 0.461835 0 
0.981246 0.632796 0 
0.425673 0.252082 0 
0.631123 0.314648 0 
1.10744 0.752603 0 
1.30649 0.805763 0 
0.833461 0.324582 0 
1.06211 0.361372 0 
1.5768 0.907945 0 
2.35757 0.704247 0 
1.41144 0.578646 0 
2.34983 0.443781 0 
-0.722551 0.211002 0 
-0.177903 0.113341 0 
-1.01214 0.610228 0 
-0.28807 0.255291 0 
0.157777 0.175084 0 
0.284889 0.27677 0 
-0.0405744 0.113642 0 
0.0122789 0.0651881 0 
0.607783 0.320576 0 
0.887939 0.285474 0 
0.364849 0.127455 0 
0.779113 0.11932 0 
1.1895 0.345202 0 
1.99372 0.230367 0 
1.09313 0.0864124 0 
1.67478 0.0197282 0 
-1.01448 0.328318 0 
-0.401869 -0.0868813 0 
-1.26369 -0.645924 0 
-0.767705 -0.628658 0 
-0.110431 -0.112496 0 
0.00256027 -0.132459 0 
-0.384462 -0.32922 0 
-0.159802 -0.239024 0 
0.30808 -0.101597 0 
0.706018 -0.155192 0 
0.219074 -0.232689 0 
0.62888 -0.303241 0 
1.01807 -0.188685 0 
1.48355 -0.181795 0 
0.937343 -0.368891 0 
1.34227 -0.37203 0 
VECTORS body_force double
0 -9.81 0 
0 -9.81 0 
0 -9.81 0 
0 -9.81 0 
0 -9.81 0 
0 -9.81 0 
0 -9.81 0 
0 -9.81 0 
0 -9.81 0 
0 -9.81 0 
0 -9.81 0 
0 -9.81 0 
0 -9.81 0 
0 -9.81 0 
0 -9.81 0 
0 -9.81 0 
0 -9.81 0 
0 -9.81 0 
0 -9.81 0 
0 -9.81 0 
0 -9.81 0 
0 -9.81 0 
0 -9.81 0 
0 -9.81 0 
0 -9.81 0 
0 -9.81 0 
0 -9.81 0 
0 -9.81 0 
0 -9.81 0 
0 -9.81 0 
0 -9.81 0 
0 -9.81 0 
0 -9.81 0 
0 -9.81 0 
0 -9.81 0 
0 -9.81 0 
0 -9.81 0 
0 -9.81 0 
0 -9.81 0 
0 -9.81 0 
0 -9.81 0 
0 -9.81 0 
0 -9.81 0 
0 -9.81 0 
0 -9.81 0 
0 -9.81 0 
0 -9.81 0 
0 -9.81 0 
0 -9.81 0 
0 -9.81 0 
0 -9.81 0 
0 -9.81 0 
0 -9.81 0 
0 -9.81 0 
0 -9.81 0 
0 -9.81 0 
0 -9.81 0 
0 -9.81 0 
0 -9.81 0 
0 -9.81 0 
0 -9.81 0 
0 -9.81 0 
0 -9.81 0 
0 -9.81 0 
TENSORS cauchy_stress double
-12779.7 -3666.23 0
-3666.23 -28832.8 0
0 0 -12483.7

-5798.54 -6958.76 0
-6958.76 -22002 0
0 0 -8340.15

-12502.1 -2402.06 0
-2402.06 -27202.7 0
0 0 -11911.5

-6195.67 -2194.72 0
-2194.72 -20884.6 0
0 0 -8124.07

-6391.02 -9966.75 0
-9966.75 -28378.3 0
0 0 -10430.8

-2007.53 -5792.66 0
-5792.66 -22104.8 0
0 0 -7233.71

-3780.27 -11031.2 0
-11031.2 -15606.5 0
0 0 -5816.02

-279.464 -8059.23 0
-8059.23 -10755.3 0
0 0 -3310.42

3981.28 -3623.56 0
-3623.56 -11069.1 0
0 0 -2126.34

2374.78 -2697.71 0
-2697.71 -8293.35 0
0 0 -1775.57

3278.3 -7241.09 0
-7241.09 -7041.4 0
0 0 -1128.93

2483.53 -7168.31 0
-7168.31 -7399.63 0
0 0 -1474.83

1814.96 -1285.9 0
-1285.9 -2821.02 0
0 0 -301.818

1978.37 126.49 0
126.49 -830.376 0
0 0 344.398

4142.5 -5632.77 0
-5632.77 -1342.76 0
0 0 839.923

5936.33 -3697.69 0
-3697.69 1627.72 0
0 0 2269.21

-3374.02 -12238.3 0
-12238.3 -3757.67 0
0 0 -2139.51

-5964.13 -7545.45 0
-7545.45 -9471.88 0
0 0 -4630.8

4035.92 -11607.2 0
-11607.2 10259.1 0
0 0 4288.51

-962.912 -6902.64 0
-6902.64 1547.3 0
0 0 175.318

-6815.99 -15582.1 0
-15582.1 -7124.52 0
0 0 -4182.15

-4660.53 -15030.4 0
-15030.4 -3032.36 0
0 0 -2307.87

-5072.41 -7970.57 0
-7970.57 -5927.62 0
0 0 -3300.01

-781.089 -13732.9 0
-13732.9 -6.79141 0
0 0 -236.364

-2229.55 -13422.1 0
-13422.1 2505.64 0
0 0 82.8276

-1450.73 -13462.7 0
-13462.7 -783.672 0
0 0 -670.321

2505.05 -12142.2 0
-12142.2 5694.61 0
0 0 2459.9

693.702 -11836.3 0
-11836.3 3691.21 0
0 0 1315.48

5418.34 -10707 0
-10707 6181.69 0
0 0 3480.01

9210.39 -7407.07 0
-7407.07 5466.59 0
0 0 4403.09

3202.73 -9855.74 0
-9855.74 8312.73 0
0 0 3454.64

4751.47 -6122.62 0
-6122.62 3627.18 0
0 0 2513.59

-5836.74 -7200.18 0
-7200.18 746.328 0
0 0 -1527.12

2282.92 -4497.75 0
-4497.75 7177.22 0
0 0 2838.04

426.327 -1309.11 0
-1309.11 2528.06 0
0 0 886.316

5671.52 -4053.43 0
-4053.43 5793.98 0
0 0 3439.65

-4591.3 -6798.46 0
-6798.46 -2293.09 0
0 0 -2065.32

-4402.7 -13719.4 0
-13719.4 4489.82 0
0 0 26.1365

1090.71 -4517 0
-4517 1466.68 0
0 0 767.219

-1352.43 -7378.95 0
-7378.95 2922.36 0
0 0 470.981

-3016.43 -11523 0
-11523 6944.34 0
0 0 1178.38

-4027.37 -10996.4 0
-10996.4 4087.48 0
0 0 18.0345

871.578 -7593.01 0
-7593.01 9472.5 0
0 0 3103.22

-199.754 -7438.36 0
-7438.36 7576.73 0
0 0 2213.09

-1324.22 -9135.67 0
-9135.67 6950.3 0
0 0 1687.82

810.565 -4819.43 0
-4819.43 5169.08 0
0 0 1793.89

-2065.83 -6163.58 0
-6163.58 5725.64 0
0 0 1097.94

-3568.74 -2662.49 0
-2662.49 4831.65 0
0 0 378.872

4373.28 482.407 0
482.407 -5543.66 0
0 0 -351.115

3676.99 2303.71 0
2303.71 -1148.93 0
0 0 758.417

5595.81 -872.81 0
-872.81 925.037 0
0 0 1956.25

6398.58 2964.97 0
2964.97 5603.1 0
0 0 3600.51

1570.21 3459.37 0
3459.37 2676.47 0
0 0 1274

-2808.14 1359.22 0
1359.22 3171.8 0
0 0 109.099

5494.12 5615.98 0
5615.98 11847.3 0
0 0 5202.41

1620.44 4540.1 0
4540.1 10896.4 0
0 0 3755.07

-1769.8 -81.751 0
-81.751 5159.01 0
0 0 1016.76

-1338.56 -720.286 0
-720.286 3888.25 0
0 0 764.906

552.125 3204.16 0
3204.16 6140.53 0
0 0 2007.8

920.115 2987.52 0
2987.52 3906.9 0
0 0 1448.11

-4323.82 -1699.49 0
-1699.49 867.755 0
0 0 -1036.82

-7515.74 98.3002 0
98.3002 -86.3774 0
0 0 -2280.64

-1250.02 839.345 0
839.345 -22.8665 0
0 0 -381.867

-2466.75 2183.4 0
2183.4 -28.0838 0
0 0 -748.452

TENSORS velocity_gradient double
3.97258 34.6773 0
-7.59558 8.90077 0
0 0 0

0.652653 25.7668 0
-7.43018 8.33246 0
0 0 0

6.40996 28.5727 0
-6.98597 7.37395 0
0 0 0

-0.869113 24.6593 0
-9.22457 8.48464 0
0 0 0

-1.3292 25.3157 0
-5.99185 8.65982 0
0 0 0

-3.20823 22.031 0
-4.66836 7.96931 0
0 0 0

-6.41154 22.6504 0
-11.855 10.0592 0
0 0 0

-9.26398 22.3751 0
-14.117 10.0393 0
0 0 0

-3.84967 13.9788 0
-4.58488 5.40238 0
0 0 0

-4.05995 13.9505 0
-4.95947 5.35207 0
0 0 0

-8.07683 15.3221 0
-14.236 5.40838 0
0 0 0

-4.84834 15.6711 0
-13.6146 5.47555 0
0 0 0

-3.82779 17.0687 0
-5.28506 2.6271 0
0 0 0

-3.21148 17.176 0
-5.56761 2.57786 0
0 0 0

-2.20285 18.2127 0
-13.7377 1.44532 0
0 0 0

-0.843219 18.435 0
-15.3827 1.17645 0
0 0 0

-4.35922 24.7267 0
-10.4941 6.03761 0
0 0 0

-5.55738 24.0832 0
-11.423 5.53864 0
0 0 0

-3.30454 22.3018 0
-9.46141 3.17843 0
0 0 0

-4.69627 22.6174 0
-10.33 4.40293 0
0 0 0

-6.87579 20.7586 0
-12.4098 8.88377 0
0 0 0

-8.45042 20.5035 0
-13.5354 8.70137 0
0 0 0

-6.65555 21.6535 0
-5.93399 4.28693 0
0 0 0

-6.68839 19.553 0
-6.85148 6.79113 0
0 0 0

-9.15835 19.4518 0
-14.3717 6.86436 0
0 0 0

-6.21794 19.4855 0
-13.8782 6.20967 0
0 0 0

-5.86278 19.6679 0
-9.73167 6.39025 0
0 0 0

-4.71972 21.8939 0
-12.5439 4.89094 0
0 0 0

-3.01769 19.8115 0
-13.4782 3.4161 0
0 0 0

-1.22614 19.9846 0
-15.1646 -0.620281 0
0 0 0

-3.3676 22.0626 0
-15.3009 4.54703 0
0 0 0

-1.51299 22.1914 0
-16.9445 -1.59246 0
0 0 0

-2.69452 18.439 0
-3.28455 -3.01788 0
0 0 0

-4.04755 20.822 0
-2.28526 3.05005 0
0 0 0

-2.1482 17.4854 0
-5.07169 0.101763 0
0 0 0

-3.144 17.5561 0
-2.37845 1.52463 0
0 0 0

-5.83857 20.038 0
-3.6245 2.46383 0
0 0 0

-7.04164 20.321 0
-5.34139 3.50806 0
0 0 0

-2.48155 18.311 0
-8.11628 1.44105 0
0 0 0

-1.1906 18.0062 0
-10.7507 1.50616 0
0 0 0

-6.27121 20.5474 0
-8.30684 3.32208 0
0 0 0

-5.28796 22.7896 0
-11.3264 2.24657 0
0 0 0

-0.961212 21.2554 0
-11.3249 1.0473 0
0 0 0

-0.437654 21.3334 0
-12.7418 0.887742 0
0 0 0

-3.93389 23.4373 0
-14.1462 1.7439 0
0 0 0

-3.2763 24.1294 0
-15.8053 -1.53209 0
0 0 0

-2.70102 21.8216 0
-13.1956 0.761068 0
0 0 0

-5.80919 21.6213 0
-13.3232 0.510412 0
0 0 0

-4.31193 17.4228 0
-16.0076 3.22508 0
0 0 0

-1.84351 18.6125 0
-14.721 4.41597 0
0 0 0

-5.82736 20.1752 0
-18.233 6.12021 0
0 0 0

-2.87035 21.6563 0
-15.642 7.14603 0
0 0 0

-0.52696 17.6408 0
-12.6125 2.53125 0
0 0 0

-1.06135 17.4976 0
-11.1133 2.93299 0
0 0 0

-1.45802 17.6008 0
-11.5071 3.88547 0
0 0 0

-0.99016 17.6053 0
-10.2438 3.83561 0
0 0 0

-1.07471 21.7622 0
-11.0271 -0.282446 0
0 0 0

-0.529616 21.8255 0
-12.4574 -0.448462 0
0 0 0

0.538774 22.0777 0
-10.2279 -0.692189 0
0 0 0

0.531496 22.0768 0
-8.98489 -0.534548 0
0 0 0

-2.0423 18.8505 0
-13.1635 0.616572 0
0 0 0

-5.19134 18.4593 0
-13.3167 0.597545 0
0 0 0

-0.535909 16.2209 0
-8.18201 0.712674 0
0 0 0

-3.01559 15.9675 0
-7.91821 0.739635 0
0 0 0

SCALARS active double 1
LOOKUP_TABLE default
1
1
1
1
1
1
1
1
1
1
1
1
1
1
1
1
1
1
1
1
1
1
1
1
1
1
1
1
1
1
1
1
1
1
1
1
1
1
1
1
1
1
1
1
1
1
1
1
1
1
1
1
1
1
1
1
1
1
1
1
1
1
1
1
SCALARS extent double 1
LOOKUP_TABLE default
0.0125
0.0125
0.0125
0.0125
0.0125
0.0125
0.0125
0.0125
0.0125
0.0125
0.0125
0.0125
0.0125
0.0125
0.0125
0.0125
0.0125
0.0125
0.0125
0.0125
0.0125
0.0125
0.0125
0.0125
0.0125
0.0125
0.0125
0.0125
0.0125
0.0125
0.0125
0.0125
0.0125
0.0125
0.0125
0.0125
0.0125
0.0125
0.0125
0.0125
0.0125
0.0125
0.0125
0.0125
0.0125
0.0125
0.0125
0.0125
0.0125
0.0125
0.0125
0.0125
0.0125
0.0125
0.0125
0.0125
0.0125
0.0125
0.0125
0.0125
0.0125
0.0125
0.0125
0.0125
SCALARS pressure double 1
LOOKUP_TABLE default
18032.1
12046.9
17205.4
11734.8
15066.7
10448.7
8400.91
4781.71
3071.38
2564.71
1630.68
2130.31
435.959
-497.464
-1213.22
-3277.75
3090.4
6688.94
-6194.52
-253.237
6040.89
3333.58
4766.68
341.415
-119.64
968.241
-3553.19
-1900.13
-5026.68
-6360.02
-4990.03
-3630.75
2205.85
-4099.39
-1280.23
-4968.38
2983.24
-37.7527
-1108.2
-680.306
-1702.1
-26.0499
-4482.43
-3196.69
-2437.97
-2591.18
-1585.92
-547.26
507.166
-1095.49
-2825.7
-5200.73
-1840.23
-157.588
-7514.6
-5423.98
-1468.66
-1104.86
-2900.15
-2091.71
1497.63
3294.25
551.586
1081.1
SCALARS density double 1
LOOKUP_TABLE default
1241.58
1155.53
1229.33
1151.21
1198.18
1133.58
1106.07
1059.06
1037.54
1031.26
1019.76
1025.89
1005.25
994.048
985.547
961.43
1037.78
1083.58
928.361
996.966
1075.18
1040.81
1058.87
1004.11
998.565
1011.69
958.258
977.456
941.463
926.519
941.877
957.367
1026.82
951.998
984.755
942.122
1036.45
999.547
986.79
991.87
979.782
999.687
947.632
962.366
971.168
969.384
981.149
993.454
1006.1
986.94
966.66
939.499
978.159
998.111
913.771
936.985
982.531
986.829
965.797
975.212
1018.13
1040.32
1006.64
1013.06
