# vtk DataFile Version 3.0
Frame: 41, Time: 0.684
ASCII
DATASET UNSTRUCTURED_GRID
POINTS 64 double
0.418787 0.0800807 0 
0.393073 0.0787259 0 
0.415481 0.104007 0 
0.389095 0.102362 0 
0.366576 0.0756693 0 
0.339507 0.0718662 0 
0.365235 0.0994595 0 
0.339428 0.0967176 0 
0.317006 0.0680682 0 
0.294856 0.0603584 0 
0.315464 0.0937426 0 
0.292256 0.0862112 0 
0.270037 0.0583821 0 
0.247829 0.0543125 0 
0.266983 0.0837073 0 
0.244181 0.0791283 0 
0.410787 0.127473 0 
0.384768 0.124998 0 
0.411171 0.150173 0 
0.384577 0.147773 0 
0.361565 0.123002 0 
0.337764 0.12152 0 
0.360623 0.147346 0 
0.336927 0.146141 0 
0.313515 0.116936 0 
0.290592 0.109635 0 
0.312225 0.141689 0 
0.287681 0.136379 0 
0.265956 0.109043 0 
0.240379 0.107624 0 
0.26346 0.134841 0 
0.23968 0.132714 0 
0.409574 0.174297 0 
0.384018 0.170529 0 
0.408776 0.19768 0 
0.383026 0.195089 0 
0.359552 0.170038 0 
0.334938 0.170433 0 
0.359176 0.194644 0 
0.333509 0.196125 0 
0.310311 0.167089 0 
0.286568 0.162681 0 
0.307178 0.192248 0 
0.28372 0.189913 0 
0.262398 0.159963 0 
0.238407 0.157273 0 
0.258557 0.187398 0 
0.232699 0.18283 0 
0.410183 0.220756 0 
0.383554 0.21861 0 
0.407252 0.244647 0 
0.382035 0.244018 0 
0.359248 0.220259 0 
0.332775 0.219667 0 
0.357328 0.245926 0 
0.331049 0.244051 0 
0.30598 0.216371 0 
0.281339 0.215871 0 
0.304746 0.242514 0 
0.279189 0.241456 0 
0.256297 0.21224 0 
0.229584 0.207034 0 
0.253618 0.236221 0 
0.227431 0.232256 0 
CELLS 64 128
1 0
1 1
1 2
1 3
1 4
1 5
1 6
1 7
1 8
1 9
1 10
1 11
1 12
1 13
1 14
1 15
1 16
1 17
1 18
1 19
1 20
1 21
1 22
1 23
1 24
1 25
1 26
1 27
1 28
1 29
1 30
1 31
1 32
1 33
1 34
1 35
1 36
1 37
1 38
1 39
1 40
1 41
1 42
1 43
1 44
1 45
1 46
1 47
1 48
1 49
1 50
1 51
1 52
1 53
1 54
1 55
1 56
1 57
1 58
1 59
1 60
1 61
1 62
1 63
CELL_TYPES 64
1
1
1
1
1
1
1
1
1
1
1
1
1
1
1
1
1
1
1
1
1
1
1
1
1
1
1
1
1
1
1
1
1
1
1
1
1
1
1
1
1
1
1
1
1
1
1
1
1
1
1
1
1
1
1
1
1
1
1
1
1
1
1
1
POINT_DATA 64
VECTORS displacement double
0.00628713 -0.332419 0 
-0.0194274 -0.358774 0 
-0.0220195 -0.308493 0 
-0.0484051 -0.335138 0 
-0.0459239 -0.386831 0 
-0.0729931 -0.415634 0 
-0.0722653 -0.36304 0 
-0.0980722 -0.390782 0 
-0.095494 -0.444432 0 
-0.117644 -0.477142 0 
-0.122036 -0.418757 0 
-0.145244 -0.451289 0 
-0.142463 -0.504118 0 
-0.164671 -0.533187 0 
-0.170517 -0.478793 0 
-0.193319 -0.508372 0 
-0.0517129 -0.285027 0 
-0.0777322 -0.312502 0 
-0.0763287 -0.262327 0 
-0.102923 -0.289727 0 
-0.100935 -0.339498 0 
-0.124736 -0.36598 0 
-0.126877 -0.315154 0 
-0.150573 -0.341359 0 
-0.148985 -0.395564 0 
-0.171908 -0.427865 0 
-0.175275 -0.370811 0 
-0.199819 -0.401121 0 
-0.196544 -0.453457 0 
-0.222121 -0.479876 0 
-0.22404 -0.427659 0 
-0.24782 -0.454786 0 
-0.102926 -0.238203 0 
-0.128482 -0.266971 0 
-0.128724 -0.21482 0 
-0.154474 -0.242411 0 
-0.152948 -0.292462 0 
-0.177562 -0.317067 0 
-0.178324 -0.267856 0 
-0.203991 -0.291375 0 
-0.202189 -0.345411 0 
-0.225932 -0.374819 0 
-0.230322 -0.320252 0 
-0.25378 -0.347587 0 
-0.250102 -0.402537 0 
-0.274093 -0.430227 0 
-0.278943 -0.375102 0 
-0.304801 -0.40467 0 
-0.152317 -0.191744 0 
-0.178946 -0.21889 0 
-0.180248 -0.167853 0 
-0.205465 -0.193482 0 
-0.203252 -0.242241 0 
-0.229725 -0.267833 0 
-0.230172 -0.216574 0 
-0.256451 -0.243449 0 
-0.25652 -0.296129 0 
-0.281161 -0.321629 0 
-0.282754 -0.269986 0 
-0.308311 -0.296044 0 
-0.306203 -0.35026 0 
-0.332916 -0.380466 0 
-0.333882 -0.326279 0 
-0.360069 -0.355244 0 
VECTORS velocity double
-0.235713 1.54806 0 
-0.62524 1.68795 0 
-0.661214 1.60567 0 
-0.976706 1.45681 0 
0.249174 1.56376 0 
-1.45987 1.692 0 
-0.374005 1.13577 0 
-1.04298 1.77448 0 
-0.662268 0.977984 0 
-0.799903 0.720339 0 
-0.0618244 1.52168 0 
-0.475688 1.04249 0 
-1.00158 0.738162 0 
-0.702995 0.47192 0 
-0.658606 0.726595 0 
-0.991913 0.467492 0 
-0.0772476 1.34304 0 
-0.83857 1.16277 0 
-0.359182 1.4818 0 
-0.685075 1.03307 0 
-0.694757 1.30684 0 
-0.886535 1.49199 0 
-0.619207 1.41583 0 
-1.10185 1.29778 0 
-0.466119 0.859794 0 
-0.403906 0.229069 0 
-1.09685 0.73971 0 
-0.94578 0.620547 0 
-0.358907 0.382985 0 
-0.545259 0.416776 0 
-0.253747 1.19185 0 
-0.645273 0.480992 0 
-0.646093 1.28531 0 
-0.439181 1.17532 0 
-0.606397 0.61523 0 
-0.553963 1.31949 0 
-0.0357492 1.30028 0 
-0.237177 0.92987 0 
-0.766344 0.907943 0 
-1.07298 0.649766 0 
-0.260426 0.5907 0 
-0.502069 0.592216 0 
-0.715933 0.813059 0 
-1.08925 0.782766 0 
-0.392063 0.458597 0 
-0.252627 -0.0735949 0 
-0.813511 1.13296 0 
0.0160523 0.423633 0 
-0.206981 0.652849 0 
-0.619417 0.835025 0 
-0.489743 0.646567 0 
-0.540392 0.703108 0 
-0.706542 0.320537 0 
-0.562956 0.695975 0 
-0.457601 0.714866 0 
-0.396103 0.710566 0 
-0.24579 0.858538 0 
-0.354647 0.4566 0 
-0.586584 0.597521 0 
-0.430627 0.866476 0 
0.0432522 0.793895 0 
-0.472921 -0.00896551 0 
-0.698876 0.713267 0 
-0.618251 0.312043 0 
SCALARS mass double 1
LOOKUP_TABLE default
0.625
0.625
0.625
0.625
0.625
0.625
0.625
0.625
0.625
0.625
0.625
0.625
0.625
0.625
0.625
0.625
0.625
0.625
0.625
0.625
0.625
0.625
0.625
0.625
0.625
0.625
0.625
0.625
0.625
0.625
0.625
0.625
0.625
0.625
0.625
0.625
0.625
0.625
0.625
0.625
0.625
0.625
0.625
0.625
0.625
0.625
0.625
0.625
0.625
0.625
0.625
0.625
0.625
0.625
0.625
0.625
0.625
0.625
0.625
0.625
0.625
0.625
0.625
0.625
SCALARS volume double 1
LOOKUP_TABLE default
0.000636571
0.000598231
0.000613976
0.000595973
0.000674199
0.000651491
0.000589907
0.000596913
0.000575857
0.000602456
0.000567377
0.000593583
0.000627622
0.000623661
0.000616525
0.000651346
0.000622207
0.000601177
0.000636607
0.000636393
0.000601632
0.000621564
0.000565518
0.000567464
0.000620149
0.000604157
0.00060442
0.000624848
0.000638768
0.000628978
0.000590074
0.000627147
0.000601789
0.000611081
0.000606514
0.000596791
0.000616178
0.000608262
0.000633033
0.000599168
0.000657134
0.000646527
0.000638073
0.00062864
0.000607429
0.000624615
0.000646928
0.000621195
0.000625326
0.000636909
0.000614918
0.000623014
0.000627109
0.000621329
0.000624155
0.000634445
0.000630869
0.000624997
0.000645735
0.000626856
0.00062858
0.000632722
0.000653575
0.000633145
VECTORS momentum double
-0.147321 0.967539 0 
-0.390775 1.05497 0 
-0.413259 1.00354 0 
-0.610441 0.910509 0 
0.155734 0.977351 0 
-0.912421 1.0575 0 
-0.233753 0.709858 0 
-0.65186 1.10905 0 
-0.413917 0.61124 0 
-0.49994 0.450212 0 
-0.0386403 0.951052 0 
-0.297305 0.651556 0 
-0.625985 0.461351 0 
-0.439372 0.29495 0 
-0.411629 0.454122 0 
-0.619946 0.292183 0 
-0.0482798 0.839397 0 
-0.524106 0.726733 0 
-0.224489 0.926126 0 
-0.428172 0.645668 0 
-0.434223 0.816776 0 
-0.554085 0.932492 0 
-0.387004 0.884897 0 
-0.688657 0.811112 0 
-0.291324 0.537371 0 
-0.252441 0.143168 0 
-0.685531 0.462319 0 
-0.591113 0.387842 0 
-0.224317 0.239366 0 
-0.340787 0.260485 0 
-0.158592 0.744909 0 
-0.403295 0.30062 0 
-0.403808 0.803322 0 
-0.274488 0.734576 0 
-0.378998 0.384519 0 
-0.346227 0.824683 0 
-0.0223432 0.812675 0 
-0.148235 0.581169 0 
-0.478965 0.567464 0 
-0.670611 0.406104 0 
-0.162766 0.369188 0 
-0.313793 0.370135 0 
-0.447458 0.508162 0 
-0.680779 0.489229 0 
-0.245039 0.286623 0 
-0.157892 -0.0459968 0 
-0.508444 0.7081 0 
0.0100327 0.26477 0 
-0.129363 0.408031 0 
-0.387136 0.521891 0 
-0.30609 0.404104 0 
-0.337745 0.439442 0 
-0.441589 0.200335 0 
-0.351848 0.434984 0 
-0.286001 0.446791 0 
-0.247565 0.444104 0 
-0.153619 0.536586 0 
-0.221654 0.285375 0 
-0.366615 0.373451 0 
-0.269142 0.541547 0 
0.0270326 0.496184 0 
-0.295576 -0.00560344 0 
-0.436797 0.445792 0 
-0.386407 0.195027 0 
VECTORS body_force double
0 -9.81 0 
0 -9.81 0 
0 -9.81 0 
0 -9.81 0 
0 -9.81 0 
0 -9.81 0 
0 -9.81 0 
0 -9.81 0 
0 -9.81 0 
0 -9.81 0 
0 -9.81 0 
0 -9.81 0 
0 -9.81 0 
0 -9.81 0 
0 -9.81 0 
0 -9.81 0 
0 -9.81 0 
0 -9.81 0 
0 -9.81 0 
0 -9.81 0 
0 -9.81 0 
0 -9.81 0 
0 -9.81 0 
0 -9.81 0 
0 -9.81 0 
0 -9.81 0 
0 -9.81 0 
0 -9.81 0 
0 -9.81 0 
0 -9.81 0 
0 -9.81 0 
0 -9.81 0 
0 -9.81 0 
0 -9.81 0 
0 -9.81 0 
0 -9.81 0 
0 -9.81 0 
0 -9.81 0 
0 -9.81 0 
0 -9.81 0 
0 -9.81 0 
0 -9.81 0 
0 -9.81 0 
0 -9.81 0 
0 -9.81 0 
0 -9.81 0 
0 -9.81 0 
0 -9.81 0 
0 -9.81 0 
0 -9.81 0 
0 -9.81 0 
0 -9.81 0 
0 -9.81 0 
0 -9.81 0 
0 -9.81 0 
0 -9.81 0 
0 -9.81 0 
0 -9.81 0 
0 -9.81 0 
0 -9.81 0 
0 -9.81 0 
0 -9.81 0 
0 -9.81 0 
0 -9.81 0 
TENSORS cauchy_stress double
4782.47 4704.83 0
4704.83 -1254.84 0
0 0 1058.29

-3116.63 -4060.97 0
-4060.97 -5301.54 0
0 0 -2525.45

-1070.53 -567.976 0
-567.976 -2351.85 0
0 0 -1026.71

-2344.57 789.705 0
789.705 -6800.75 0
0 0 -2743.6

9579.73 2549.83 0
2549.83 4992.08 0
0 0 4371.54

3523.92 2572.9 0
2572.9 4459.02 0
0 0 2394.88

-4416.81 5756.93 0
5756.93 -6696.17 0
0 0 -3333.89

-4466.28 -2403.3 0
-2403.3 -4375.97 0
0 0 -2652.67

-15814.4 1271.72 0
1271.72 65.7913 0
0 0 -4724.58

-6922.34 22.618 0
22.618 -142.619 0
0 0 -2119.49

-11756.9 7170.18 0
7170.18 -6844.69 0
0 0 -5580.47

-8150.03 3591.8 0
3591.8 -1768.3 0
0 0 -2975.5

-2249.13 -1116.55 0
-1116.55 3054.1 0
0 0 241.491

-3088.52 -4535.92 0
-4535.92 2676.06 0
0 0 -123.739

-4363.6 1647.53 0
1647.53 1738.16 0
0 0 -787.63

715.585 2665.71 0
2665.71 7224.61 0
0 0 2382.06

-1856.93 -400.661 0
-400.661 995.659 0
0 0 -258.383

1317.77 -3453.16 0
-3453.16 -8791.33 0
0 0 -2242.07

3865.17 -2076.21 0
-2076.21 -326.466 0
0 0 1061.61

8218.19 -3942.55 0
-3942.55 -4744.18 0
0 0 1042.2

-5205.15 1218.46 0
1218.46 -2122.8 0
0 0 -2198.39

-5129 -5205.69 0
-5205.69 4068.85 0
0 0 -318.047

-9080.67 540.252 0
540.252 -10151.9 0
0 0 -5769.77

-8944.6 -73.1217 0
-73.1217 -9627.3 0
0 0 -5571.57

-1763.63 -2684.36 0
-2684.36 265.082 0
0 0 -449.563

-9699.53 864.015 0
864.015 3176.82 0
0 0 -1956.81

-5431.82 7298.91 0
7298.91 -1006.99 0
0 0 -1931.64

-959.276 2862.44 0
2862.44 912.613 0
0 0 -13.9988

1214.02 772.883 0
772.883 2976.43 0
0 0 1257.14

-778.606 792.722 0
792.722 1998.7 0
0 0 366.029

-7863.32 2648.45 0
2648.45 -3194.99 0
0 0 -3317.49

-781.876 1816.6 0
1816.6 1441.24 0
0 0 197.81

-3854.9 -1525.93 0
-1525.93 -3422.78 0
0 0 -2183.3

-158.677 -2169.59 0
-2169.59 -4172.36 0
0 0 -1299.31

-1706.63 -920.042 0
-920.042 -4067.12 0
0 0 -1732.12

-3892.39 561.684 0
561.684 -4989.13 0
0 0 -2664.46

596.728 -4053.82 0
-4053.82 -3330.41 0
0 0 -820.104

-4062.31 -7434.1 0
-7434.1 -1158.16 0
0 0 -1566.14

2619.68 -213.934 0
-213.934 -163.629 0
0 0 736.817

-810.722 3854.1 0
3854.1 -7306.53 0
0 0 -2435.18

7787.49 -3044.53 0
-3044.53 1854.22 0
0 0 2892.51

1364 -8133.64 0
-8133.64 5148.22 0
0 0 1953.67

3397.02 7163.45 0
7163.45 584.062 0
0 0 1194.32

-3466.63 2031.62 0
2031.62 4583.42 0
0 0 335.037

-5113.94 -3278.87 0
-3278.87 -369.944 0
0 0 -1645.17

-1305.95 1329.03 0
1329.03 1187.31 0
0 0 -35.5908

4124.48 4251.32 0
4251.32 2506.86 0
0 0 1989.4

-68.4084 -1403.22 0
-1403.22 -1106.05 0
0 0 -352.337

2088.32 1223.19 0
1223.19 -1988.13 0
0 0 30.0582

4809.17 1755 0
1755 -1179.27 0
0 0 1088.97

-210.428 1358.94 0
1358.94 -2917.07 0
0 0 -938.249

937.349 301.132 0
301.132 -1549.39 0
0 0 -183.613

3153.6 -78.0721 0
-78.0721 -2505.75 0
0 0 194.357

1104.06 -2603.33 0
-2603.33 -2236.85 0
0 0 -339.837

250.086 -213.411 0
-213.411 -510.162 0
0 0 -78.0228

4199.38 464.023 0
464.023 -1314.89 0
0 0 865.347

3460.41 804.04 0
804.04 -1662.98 0
0 0 539.231

-985.235 -3260.01 0
-3260.01 984.275 0
0 0 -0.287815

5060.4 3427.77 0
3427.77 1216.18 0
0 0 1882.97

3269.26 1376.72 0
1376.72 -2699.09 0
0 0 171.05

3524.42 -270.078 0
-270.078 -2425.97 0
0 0 329.535

2359.66 78.2729 0
78.2729 1.68852 0
0 0 708.405

5820.95 1979.42 0
1979.42 2776.31 0
0 0 2579.18

2516.21 1226.66 0
1226.66 -26.1822 0
0 0 747.008

TENSORS velocity_gradient double
2.11883 -4.39952 0
-0.764316 0.207962 0
0 0 0

2.70895 -4.11435 0
1.18226 -2.3023 0
0 0 0

1.93514 -0.232745 0
1.97096 -2.01243 0
0 0 0

2.48478 -0.92424 0
1.00532 -2.89117 0
0 0 0

2.74119 -3.83319 0
1.22095 -1.96496 0
0 0 0

1.15279 -2.28433 0
10.8369 -1.36523 0
0 0 0

2.50429 -1.99953 0
0.991753 -2.61674 0
0 0 0

-2.10107 -1.8883 0
9.88772 -1.71209 0
0 0 0

1.64431 0.821663 0
10.974 -0.499175 0
0 0 0

2.59084 3.30133 0
6.49513 -0.147937 0
0 0 0

-1.90822 1.0381 0
9.9834 -0.438824 0
0 0 0

1.77107 3.48148 0
7.11215 -0.210996 0
0 0 0

2.63275 4.16757 0
5.58949 -1.42337 0
0 0 0

2.35785 0.429705 0
5.54205 1.09128 0
0 0 0

1.84347 4.26563 0
6.98422 -1.59666 0
0 0 0

0.96761 5.12705 0
2.72498 -1.68288 0
0 0 0

2.0948 1.4693 0
2.72098 -2.87407 0
0 0 0

2.3987 1.4174 0
1.41587 -3.45952 0
0 0 0

2.32103 0.869812 0
2.89606 -5.237 0
0 0 0

2.32011 1.08593 0
1.89793 -4.33392 0
0 0 0

2.40438 1.48411 0
1.3722 -3.97236 0
0 0 0

-1.1829 0.52856 0
9.16141 -3.93528 0
0 0 0

2.32298 1.24275 0
1.89283 -4.66205 0
0 0 0

0.845731 0.507276 0
8.43833 -4.12339 0
0 0 0

-1.55726 -1.54942 0
9.27761 -3.29028 0
0 0 0

0.247192 -1.68926 0
7.44511 -2.44233 0
0 0 0

0.568665 -1.65642 0
8.61773 -3.25707 0
0 0 0

-3.0044 -1.34088 0
6.00902 -2.28847 0
0 0 0

0.296831 1.29597 0
7.46703 -1.12389 0
0 0 0

-0.645316 3.63142 0
-0.127469 -1.22698 0
0 0 0

-2.83557 1.60343 0
6.08359 -0.988094 0
0 0 0

-1.56355 3.66034 0
2.62387 -1.31361 0
0 0 0

2.8187 -0.0373167 0
0.629924 -8.48261 0
0 0 0

2.08823 -0.0787302 0
2.08554 -7.40348 0
0 0 0

3.25637 -0.0780946 0
-1.9229 -7.45333 0
0 0 0

1.78627 -0.0420934 0
2.18805 -7.28831 0
0 0 0

2.09359 0.216128 0
2.08357 -7.51137 0
0 0 0

0.393866 1.05267 0
5.85634 -5.69102 0
0 0 0

1.79404 0.222296 0
2.19284 -7.5068 0
0 0 0

-0.847858 1.19033 0
2.57062 -5.04346 0
0 0 0

0.552503 2.26972 0
6.27077 -2.51153 0
0 0 0

-4.23165 2.26222 0
4.6374 -0.451387 0
0 0 0

-0.69527 2.42757 0
3.01101 -2.09916 0
0 0 0

-3.06483 2.13728 0
3.26655 -0.304606 0
0 0 0

-4.34309 1.22318 0
4.76833 0.769337 0
0 0 0

-2.28371 0.786602 0
5.01925 0.681951 0
0 0 0

-3.1689 1.05676 0
3.38881 0.964855 0
0 0 0

-2.54915 0.846207 0
6.70619 0.303144 0
0 0 0

2.59945 -0.208476 0
-2.90153 -4.51605 0
0 0 0

1.23513 0.666176 0
1.71138 -3.80795 0
0 0 0

1.6022 -0.0977426 0
-3.46314 -4.32368 0
0 0 0

0.541678 0.707895 0
0.981351 -3.76403 0
0 0 0

1.18901 1.32619 0
1.66283 -3.11312 0
0 0 0

-1.17997 1.64983 0
0.737435 -1.79675 0
0 0 0

0.45724 1.54781 0
0.981977 -2.54553 0
0 0 0

-1.26323 1.65586 0
-0.78012 -1.68691 0
0 0 0

-1.1688 1.74125 0
0.941051 -0.130433 0
0 0 0

-1.52905 0.478705 0
2.47779 0.570126 0
0 0 0

-1.12695 1.70792 0
-0.461515 -0.0741898 0
0 0 0

0.280047 0.325847 0
2.06116 0.605329 0
0 0 0

-1.78122 -1.29567 0
2.53586 0.978762 0
0 0 0

-2.29291 -3.10456 0
7.61389 1.85774 0
0 0 0

-0.133811 -1.47844 0
2.89304 1.04563 0
0 0 0

-0.618498 -3.24259 0
6.64669 1.93747 0
0 0 0

SCALARS active double 1
LOOKUP_TABLE default
1
1
1
1
1
1
1
1
1
1
1
1
1
1
1
1
1
1
1
1
1
1
1
1
1
1
1
1
1
1
1
1
1
1
1
1
1
1
1
1
1
1
1
1
1
1
1
1
1
1
1
1
1
1
1
1
1
1
1
1
1
1
1
1
SCALARS extent double 1
LOOKUP_TABLE default
0.0125
0.0125
0.0125
0.0125
0.0125
0.0125
0.0125
0.0125
0.0125
0.0125
0.0125
0.0125
0.0125
0.0125
0.0125
0.0125
0.0125
0.0125
0.0125
0.0125
0.0125
0.0125
0.0125
0.0125
0.0125
0.0125
0.0125
0.0125
0.0125
0.0125
0.0125
0.0125
0.0125
0.0125
0.0125
0.0125
0.0125
0.0125
0.0125
0.0125
0.0125
0.0125
0.0125
0.0125
0.0125
0.0125
0.0125
0.0125
0.0125
0.0125
0.0125
0.0125
0.0125
0.0125
0.0125
0.0125
0.0125
0.0125
0.0125
0.0125
0.0125
0.0125
0.0125
0.0125
SCALARS pressure double 1
LOOKUP_TABLE default
-1528.64
3647.87
1483.03
3962.97
-6314.45
-3459.28
4815.63
3831.64
6824.39
3061.48
8060.68
4297.94
-348.82
178.734
1137.69
-3440.75
373.219
3238.54
-1533.44
-1505.4
3175.45
459.401
8334.11
8047.82
649.369
2826.5
2790.15
20.2205
-1815.86
-528.709
4791.94
-285.726
3153.66
1876.78
2501.96
3848.66
1184.59
2262.2
-1064.29
3517.48
-4178.07
-2821.96
-1725.13
-483.942
2376.35
51.409
-2873.58
508.931
-43.4175
-1572.95
1355.25
265.219
-280.737
490.876
112.7
-1249.95
-778.889
0.415732
-2719.85
-247.072
-475.995
-1023.25
-3725.48
-1079.01
SCALARS density double 1
LOOKUP_TABLE default
981.824
1044.75
1017.96
1048.7
927.026
959.338
1059.49
1047.05
1085.34
1037.42
1101.56
1052.93
995.823
1002.15
1013.75
959.552
1004.49
1039.63
981.767
982.097
1038.84
1005.53
1105.18
1101.39
1007.82
1034.5
1034.05
1000.24
978.445
993.676
1059.19
996.577
1038.57
1022.78
1030.48
1047.27
1014.32
1027.52
987.31
1043.11
951.099
966.703
979.511
994.21
1028.93
1000.62
966.105
1006.13
999.479
981.302
1016.4
1003.19
996.637
1005.91
1001.35
985.113
990.697
1000
967.889
997.04
994.304
987.796
956.279
987.135
