# vtk DataFile Version 3.0
Frame: 30, Time: 0.5
ASCII
DATASET UNSTRUCTURED_GRID
POINTS 64 double
0.41474 0.0848677 0 
0.395916 0.103583 0 
0.429985 0.103472 0 
0.411808 0.122987 0 
0.375388 0.12066 0 
0.355703 0.137392 0 
0.393797 0.137915 0 
0.375442 0.153415 0 
0.339968 0.154774 0 
0.321399 0.170831 0 
0.358998 0.17285 0 
0.340011 0.188375 0 
0.304891 0.190934 0 
0.287788 0.208037 0 
0.32274 0.207703 0 
0.305425 0.224746 0 
0.446054 0.122832 0 
0.427924 0.141041 0 
0.465718 0.138967 0 
0.445856 0.156089 0 
0.410087 0.156009 0 
0.392409 0.172225 0 
0.428399 0.172358 0 
0.410867 0.188703 0 
0.375145 0.191032 0 
0.355878 0.205218 0 
0.39329 0.20767 0 
0.373781 0.223706 0 
0.339545 0.224358 0 
0.322673 0.245959 0 
0.35678 0.242954 0 
0.340928 0.262704 0 
0.48425 0.15585 0 
0.463986 0.171847 0 
0.499833 0.174166 0 
0.480541 0.190798 0 
0.44596 0.18839 0 
0.427972 0.207222 0 
0.463778 0.207097 0 
0.446334 0.226178 0 
0.41072 0.226025 0 
0.392395 0.241632 0 
0.428255 0.244448 0 
0.412854 0.259961 0 
0.374782 0.260602 0 
0.358487 0.27937 0 
0.39557 0.278645 0 
0.375754 0.297626 0 
0.517078 0.190157 0 
0.497513 0.207176 0 
0.532733 0.210443 0 
0.516092 0.226887 0 
0.48277 0.225266 0 
0.463952 0.242646 0 
0.50024 0.244524 0 
0.481674 0.261565 0 
0.446643 0.260905 0 
0.431938 0.278773 0 
0.465823 0.280299 0 
0.449299 0.298689 0 
0.413599 0.295747 0 
0.392804 0.31383 0 
0.429389 0.313886 0 
0.411427 0.331577 0 
CELLS 64 128
1 0
1 1
1 2
1 3
1 4
1 5
1 6
1 7
1 8
1 9
1 10
1 11
1 12
1 13
1 14
1 15
1 16
1 17
1 18
1 19
1 20
1 21
1 22
1 23
1 24
1 25
1 26
1 27
1 28
1 29
1 30
1 31
1 32
1 33
1 34
1 35
1 36
1 37
1 38
1 39
1 40
1 41
1 42
1 43
1 44
1 45
1 46
1 47
1 48
1 49
1 50
1 51
1 52
1 53
1 54
1 55
1 56
1 57
1 58
1 59
1 60
1 61
1 62
1 63
CELL_TYPES 64
1
1
1
1
1
1
1
1
1
1
1
1
1
1
1
1
1
1
1
1
1
1
1
1
1
1
1
1
1
1
1
1
1
1
1
1
1
1
1
1
1
1
1
1
1
1
1
1
1
1
1
1
1
1
1
1
1
1
1
1
1
1
1
1
POINT_DATA 64
VECTORS displacement double
0.00223974 -0.327632 0 
-0.0165838 -0.333917 0 
-0.00751477 -0.309028 0 
-0.0256917 -0.314513 0 
-0.0371123 -0.34184 0 
-0.0567966 -0.350108 0 
-0.0437027 -0.324585 0 
-0.0620577 -0.334085 0 
-0.0725322 -0.357726 0 
-0.0911005 -0.366669 0 
-0.0785023 -0.33965 0 
-0.0974886 -0.349125 0 
-0.107609 -0.371566 0 
-0.124712 -0.379463 0 
-0.11476 -0.354797 0 
-0.132075 -0.362754 0 
-0.0164462 -0.289668 0 
-0.0345758 -0.296459 0 
-0.0217816 -0.273533 0 
-0.0416436 -0.281411 0 
-0.0524131 -0.306491 0 
-0.0700906 -0.315275 0 
-0.0591009 -0.290142 0 
-0.0766333 -0.298797 0 
-0.0873546 -0.321468 0 
-0.106622 -0.332282 0 
-0.0942101 -0.30483 0 
-0.113719 -0.313794 0 
-0.122955 -0.338142 0 
-0.139827 -0.341541 0 
-0.13072 -0.319546 0 
-0.146572 -0.324796 0 
-0.0282497 -0.25665 0 
-0.048514 -0.265653 0 
-0.0376673 -0.238334 0 
-0.0569588 -0.246702 0 
-0.06654 -0.27411 0 
-0.0845279 -0.280278 0 
-0.0737224 -0.255403 0 
-0.0911664 -0.261322 0 
-0.10178 -0.286475 0 
-0.120105 -0.295868 0 
-0.109245 -0.268052 0 
-0.124646 -0.277539 0 
-0.137718 -0.301898 0 
-0.154013 -0.30813 0 
-0.14193 -0.283855 0 
-0.161746 -0.289874 0 
-0.0454218 -0.222343 0 
-0.0649872 -0.230324 0 
-0.0547672 -0.202057 0 
-0.0714085 -0.210613 0 
-0.0797303 -0.237234 0 
-0.098548 -0.244854 0 
-0.0872603 -0.217976 0 
-0.105826 -0.225935 0 
-0.115857 -0.251595 0 
-0.130562 -0.258727 0 
-0.121677 -0.232201 0 
-0.138201 -0.238811 0 
-0.148901 -0.266753 0 
-0.169696 -0.27367 0 
-0.158111 -0.248614 0 
-0.176073 -0.255923 0 
VECTORS velocity double
0.415617 -0.0995969 0 
0.216043 -0.634399 0 
0.361672 0.157265 0 
-0.39822 0.350895 0 
0.798655 -0.47581 0 
-0.345954 -0.434081 0 
0.572325 -0.126098 0 
-0.0271836 -0.268458 0 
0.253529 -1.02064 0 
-0.332338 -1.05777 0 
-0.418303 -0.308399 0 
-0.453581 -0.389444 0 
-0.195705 -0.87373 0 
-0.412433 -1.1806 0 
-0.0761599 -0.419371 0 
-0.977164 -0.964413 0 
0.268938 -0.188671 0 
-0.0309546 0.0999217 0 
0.432288 -0.0978929 0 
0.0764096 -0.103669 0 
0.556216 -0.254557 0 
-0.262283 -0.304819 0 
0.0527636 -0.144771 0 
-0.813277 -0.13187 0 
-0.723416 -0.453608 0 
-0.596699 -0.816678 0 
-0.614346 -0.26929 0 
-0.280766 -0.58699 0 
-0.288826 -0.297962 0 
-1.00194 -0.687284 0 
-0.555301 0.347748 0 
-1.05427 -0.946437 0 
0.281192 0.531405 0 
0.180792 0.0820063 0 
-0.318647 0.216593 0 
-0.103097 0.325759 0 
-0.0164108 0.100201 0 
-0.469834 0.360695 0 
-0.588417 -0.229019 0 
-0.690864 -0.0428948 0 
0.0227033 0.176398 0 
-0.472677 -0.323609 0 
-0.493366 0.127566 0 
-1.22419 -0.397426 0 
-1.63014 -0.293694 0 
-1.14464 -0.912398 0 
-1.42843 0.0254814 0 
-0.539536 0.593335 0 
0.32347 0.423338 0 
-0.0926235 0.229132 0 
-0.254649 0.564053 0 
-0.769206 0.447471 0 
-0.184095 -0.169869 0 
-0.128981 0.0883633 0 
-0.710565 0.874669 0 
-0.66254 0.337201 0 
-0.6209 -0.0320757 0 
-1.18129 -0.494104 0 
-1.14219 -0.0547601 0 
-1.17625 0.719315 0 
-0.502622 -0.565749 0 
-1.10643 -0.565798 0 
-0.860936 0.13647 0 
-1.75398 0.0429636 0 
SCALARS mass double 1
LOOKUP_TABLE default
0.625
0.625
0.625
0.625
0.625
0.625
0.625
0.625
0.625
0.625
0.625
0.625
0.625
0.625
0.625
0.625
0.625
0.625
0.625
0.625
0.625
0.625
0.625
0.625
0.625
0.625
0.625
0.625
0.625
0.625
0.625
0.625
0.625
0.625
0.625
0.625
0.625
0.625
0.625
0.625
0.625
0.625
0.625
0.625
0.625
0.625
0.625
0.625
0.625
0.625
0.625
0.625
0.625
0.625
0.625
0.625
0.625
0.625
0.625
0.625
0.625
0.625
0.625
0.625
SCALARS volume double 1
LOOKUP_TABLE default
0.000615745
0.000662633
0.000641205
0.000631768
0.000658402
0.00065538
0.000567155
0.000621366
0.000600009
0.000648782
0.000613013
0.000589659
0.000625459
0.000612485
0.000627986
0.000622708
0.00064194
0.000608063
0.000644003
0.000633948
0.000582749
0.000678933
0.000565974
0.000614925
0.000657941
0.000571287
0.000605073
0.000624958
0.000643001
0.000617534
0.000625418
0.00062022
0.000663521
0.000624138
0.000600876
0.000593818
0.000662705
0.000699214
0.000643541
0.000607212
0.00063877
0.000673789
0.000580258
0.000621117
0.000652706
0.000589415
0.000695169
0.000617814
0.000645545
0.000639693
0.00064175
0.000601885
0.000631579
0.000621335
0.000600256
0.000604739
0.000613737
0.000627711
0.000638415
0.000609573
0.000634785
0.000607237
0.000618465
0.000650688
VECTORS momentum double
0.259761 -0.0622481 0 
0.135027 -0.396499 0 
0.226045 0.0982908 0 
-0.248888 0.21931 0 
0.499159 -0.297381 0 
-0.216221 -0.2713 0 
0.357703 -0.0788114 0 
-0.0169897 -0.167787 0 
0.158456 -0.637897 0 
-0.207711 -0.661104 0 
-0.26144 -0.192749 0 
-0.283488 -0.243402 0 
-0.122315 -0.546081 0 
-0.25777 -0.737873 0 
-0.0476 -0.262107 0 
-0.610727 -0.602758 0 
0.168086 -0.11792 0 
-0.0193466 0.0624511 0 
0.27018 -0.061183 0 
0.047756 -0.0647933 0 
0.347635 -0.159098 0 
-0.163927 -0.190512 0 
0.0329773 -0.0904816 0 
-0.508298 -0.0824186 0 
-0.452135 -0.283505 0 
-0.372937 -0.510424 0 
-0.383966 -0.168306 0 
-0.175479 -0.366869 0 
-0.180516 -0.186226 0 
-0.626216 -0.429553 0 
-0.347063 0.217343 0 
-0.658919 -0.591523 0 
0.175745 0.332128 0 
0.112995 0.0512539 0 
-0.199155 0.135371 0 
-0.0644356 0.2036 0 
-0.0102568 0.0626257 0 
-0.293646 0.225434 0 
-0.367761 -0.143137 0 
-0.43179 -0.0268092 0 
0.0141896 0.110249 0 
-0.295423 -0.202255 0 
-0.308354 0.0797288 0 
-0.765119 -0.248391 0 
-1.01884 -0.183559 0 
-0.715401 -0.570248 0 
-0.892768 0.0159259 0 
-0.33721 0.370835 0 
0.202169 0.264586 0 
-0.0578897 0.143208 0 
-0.159156 0.352533 0 
-0.480754 0.27967 0 
-0.11506 -0.106168 0 
-0.0806129 0.0552271 0 
-0.444103 0.546668 0 
-0.414087 0.210751 0 
-0.388062 -0.0200473 0 
-0.738305 -0.308815 0 
-0.713869 -0.0342251 0 
-0.735157 0.449572 0 
-0.314139 -0.353593 0 
-0.691518 -0.353624 0 
-0.538085 0.085294 0 
-1.09624 0.0268523 0 
VECTORS body_force double
0 -9.81 0 
0 -9.81 0 
0 -9.81 0 
0 -9.81 0 
0 -9.81 0 
0 -9.81 0 
0 -9.81 0 
0 -9.81 0 
0 -9.81 0 
0 -9.81 0 
0 -9.81 0 
0 -9.81 0 
0 -9.81 0 
0 -9.81 0 
0 -9.81 0 
0 -9.81 0 
0 -9.81 0 
0 -9.81 0 
0 -9.81 0 
0 -9.81 0 
0 -9.81 0 
0 -9.81 0 
0 -9.81 0 
0 -9.81 0 
0 -9.81 0 
0 -9.81 0 
0 -9.81 0 
0 -9.81 0 
0 -9.81 0 
0 -9.81 0 
0 -9.81 0 
0 -9.81 0 
0 -9.81 0 
0 -9.81 0 
0 -9.81 0 
0 -9.81 0 
0 -9.81 0 
0 -9.81 0 
0 -9.81 0 
0 -9.81 0 
0 -9.81 0 
0 -9.81 0 
0 -9.81 0 
0 -9.81 0 
0 -9.81 0 
0 -9.81 0 
0 -9.81 0 
0 -9.81 0 
0 -9.81 0 
0 -9.81 0 
0 -9.81 0 
0 -9.81 0 
0 -9.81 0 
0 -9.81 0 
0 -9.81 0 
0 -9.81 0 
0 -9.81 0 
0 -9.81 0 
0 -9.81 0 
0 -9.81 0 
0 -9.81 0 
0 -9.81 0 
0 -9.81 0 
0 -9.81 0 
TENSORS cauchy_stress double
40.2955 679.543 0
679.543 -2909.42 0
0 0 -860.737

-6070.95 -3339.66 0
-3339.66 17315.1 0
0 0 3373.23

6262.12 -509.256 0
-509.256 -1339.43 0
0 0 1476.81

3229.04 -108.486 0
-108.486 -1157.64 0
0 0 621.421

10301.3 1294.52 0
1294.52 -289.111 0
0 0 3003.66

5162.56 -781.669 0
-781.669 3965.06 0
0 0 2738.29

1927.85 4074.46 0
4074.46 -20604.6 0
0 0 -5603.03

-5572.27 2471.6 0
2471.6 4450.92 0
0 0 -336.405

-2097.57 6231.14 0
6231.14 -5749.9 0
0 0 -2354.24

6102.41 290.606 0
290.606 1079.28 0
0 0 2154.51

-5192.49 -1949.37 0
-1949.37 1468.31 0
0 0 -1117.25

-7280.63 807.314 0
807.314 -3913 0
0 0 -3358.09

3432.21 -922.229 0
-922.229 -3291.12 0
0 0 42.3284

-387.554 2.1701 0
2.1701 -3502.25 0
0 0 -1166.94

-3197.9 -1334.3 0
-1334.3 4114.37 0
0 0 274.941

-607.052 2501.71 0
2501.71 -99.5022 0
0 0 -211.966

4615.62 5424.03 0
5424.03 527.42 0
0 0 1542.91

-4564.33 -3105.94 0
-3105.94 -718.891 0
0 0 -1584.97

7267.52 1990.67 0
1990.67 -1507.56 0
0 0 1727.99

-894.928 -4406.12 0
-4406.12 3628.74 0
0 0 820.143

-1146.42 4404.96 0
4404.96 -12314.2 0
0 0 -4038.17

-879.744 2864.11 0
2864.11 16797.1 0
0 0 4775.2

-1862.16 1068.63 0
1068.63 -17215.5 0
0 0 -5723.31

-5766.55 -1871.19 0
-1871.19 2641.41 0
0 0 -937.541

-631.411 4095.47 0
4095.47 10509 0
0 0 2963.27

-4800.98 5347.85 0
5347.85 -12479.7 0
0 0 -5184.22

-494.367 -887.993 0
-887.993 -5736.75 0
0 0 -1869.33

4426.72 -1888.88 0
-1888.88 -4439.53 0
0 0 -3.84238

-656.919 -4197.53 0
-4197.53 6117.49 0
0 0 1638.17

-1226.28 -23.3161 0
-23.3161 -1084.64 0
0 0 -693.277

-2098.75 272.503 0
272.503 2227.25 0
0 0 38.5497

-1655.38 -1068.31 0
-1068.31 178.827 0
0 0 -442.967

4156.88 3182.75 0
3182.75 7344.83 0
0 0 3450.51

-1979.35 -467.613 0
-467.613 1713.95 0
0 0 -79.6195

-5338.99 -1399.39 0
-1399.39 -2230.81 0
0 0 -2270.94

-7486.04 -297.377 0
-297.377 -2356.15 0
0 0 -2952.66

5302.47 -1399.92 0
-1399.92 5962.48 0
0 0 3379.48

810.333 1488.05 0
1488.05 20767.6 0
0 0 6473.37

2640.92 151.323 0
151.323 2981.02 0
0 0 1686.58

833.899 -3479.87 0
-3479.87 -6386.44 0
0 0 -1665.76

-4474.57 -1185.7 0
-1185.7 8665.5 0
0 0 1257.28

-1428.58 1769.65 0
1769.65 15883.4 0
0 0 4336.46

1096.4 2085.42 0
2085.42 -15380.8 0
0 0 -4285.32

5683.14 3936.17 0
3936.17 -6881.57 0
0 0 -359.53

-1371.18 -365.017 0
-365.017 9712.51 0
0 0 2502.4

-4149.7 1578.25 0
1578.25 -7123.6 0
0 0 -3381.99

17606.8 -3320.21 0
-3320.21 2855.3 0
0 0 6138.63

-1081.82 -2977.47 0
-2977.47 -1141.94 0
0 0 -667.129

6793.94 245.614 0
245.614 -574.182 0
0 0 1865.93

2667.97 1059.38 0
1059.38 1800.54 0
0 0 1340.55

1803.32 2279.11 0
2279.11 3282.77 0
0 0 1525.83

-5880.39 3728.28 0
3728.28 -1366.64 0
0 0 -2174.11

3011.6 132.164 0
132.164 -997.879 0
0 0 604.116

-3658.47 1944.15 0
1944.15 2527.45 0
0 0 -339.306

-2665.68 -2385.76 0
-2385.76 -5102.67 0
0 0 -2330.51

-3792.56 3433.68 0
3433.68 -2545.02 0
0 0 -1901.27

-5318.16 2306.3 0
2306.3 1821.06 0
0 0 -1049.13

-8316.06 4699.7 0
4699.7 9148.42 0
0 0 249.705

3860.74 -960.12 0
-960.12 223.352 0
0 0 1225.23

419.303 -2663.56 0
-2663.56 -5225.49 0
0 0 -1441.86

-182.819 -4562.49 0
-4562.49 3170.16 0
0 0 896.204

-6829.04 -3194.29 0
-3194.29 1284.39 0
0 0 -1663.39

4599.97 1149.02 0
1149.02 -6621.23 0
0 0 -606.38

547.43 3041.98 0
3041.98 7198.54 0
0 0 2323.79

TENSORS velocity_gradient double
-0.519912 -2.57092 0
1.33182 -1.5104 0
0 0 0

-0.505049 -2.73373 0
3.88747 -0.851538 0
0 0 0

-0.412049 -2.33067 0
3.73119 1.04279 0
0 0 0

0.164789 -2.82872 0
3.73028 1.22778 0
0 0 0

0.33682 -5.97215 0
6.20199 -0.646252 0
0 0 0

2.08865 -8.16851 0
7.58437 -2.21911 0
0 0 0

2.25117 -3.90746 0
7.60293 0.864723 0
0 0 0

3.09727 -8.72448 0
8.2371 -0.050895 0
0 0 0

0.836145 -7.36613 0
7.43956 1.18976 0
0 0 0

0.0808161 -6.19683 0
7.15738 1.79408 0
0 0 0

1.98314 -8.30275 0
7.4765 0.854994 0
0 0 0

-0.823065 -7.17097 0
6.84803 1.46068 0
0 0 0

-0.998997 -5.44552 0
6.95561 2.09939 0
0 0 0

-1.67235 -7.60803 0
6.66018 2.38429 0
0 0 0

-0.885109 -8.22515 0
7.03823 1.20127 0
0 0 0

0.0890892 -9.25064 0
7.76183 0.432496 0
0 0 0

-0.221367 -1.76816 0
2.80275 1.04751 0
0 0 0

0.738625 -2.313 0
3.49023 1.01204 0
0 0 0

-2.06898 -1.58782 0
2.21824 4.60656 0
0 0 0

0.909203 -8.32082 0
3.81656 0.728059 0
0 0 0

1.37911 -10.4342 0
3.6223 -0.639336 0
0 0 0

2.04301 -10.5827 0
7.51769 -0.713914 0
0 0 0

2.32057 -9.44178 0
4.27691 0.0869242 0
0 0 0

3.27221 -10.4451 0
4.94082 -0.613031 0
0 0 0

0.748052 -9.41656 0
6.62661 0.0885518 0
0 0 0

0.0827368 -6.75781 0
5.93005 2.0592 0
0 0 0

0.0463524 -7.29315 0
5.81482 0.199381 0
0 0 0

-0.226982 -6.98235 0
4.99337 1.18966 0
0 0 0

0.122372 -7.19109 0
7.79932 1.98244 0
0 0 0

1.41021 -7.45373 0
8.78234 0.621585 0
0 0 0

-0.536673 -6.71147 0
4.00788 2.05166 0
0 0 0

2.11326 -4.24795 0
9.39722 -0.774073 0
0 0 0

-1.55346 -5.11949 0
4.78804 0.664561 0
0 0 0

-0.2147 -7.00718 0
4.52989 0.662161 0
0 0 0

-0.118155 -4.35913 0
3.7532 0.1306 0
0 0 0

1.38512 -5.59433 0
4.13299 0.311646 0
0 0 0

2.85359 -8.38704 0
4.78017 0.727314 0
0 0 0

3.97556 -7.17249 0
5.1696 -0.984862 0
0 0 0

1.94951 -7.47073 0
4.51844 -0.471951 0
0 0 0

3.44006 -7.09128 0
4.96386 -1.37479 0
0 0 0

4.12271 -7.3052 0
4.5919 -0.463827 0
0 0 0

-0.513156 -7.2833 0
4.08271 0.232003 0
0 0 0

4.22673 -7.13492 0
4.04459 -0.854026 0
0 0 0

3.38644 -5.24733 0
3.9112 1.27436 0
0 0 0

-0.651994 -3.98193 0
4.03967 0.37654 0
0 0 0

-0.666252 -3.96964 0
4.68392 -0.17856 0
0 0 0

-0.150791 -4.122 0
4.50953 1.04979 0
0 0 0

-0.666439 -4.7339 0
5.31213 0.0629162 0
0 0 0

-0.900464 -4.70307 0
3.81533 0.794935 0
0 0 0

1.00877 -8.42857 0
4.30368 2.03656 0
0 0 0

-0.864712 -7.09273 0
3.63576 0.21032 0
0 0 0

-0.0793111 -7.88025 0
2.47554 1.37367 0
0 0 0

1.34953 -8.10522 0
6.02812 1.12454 0
0 0 0

0.768226 -7.48534 0
7.49081 -0.435198 0
0 0 0

0.786731 -8.41241 0
4.113 2.02776 0
0 0 0

0.142915 -9.64216 0
7.4817 -0.364422 0
0 0 0

2.40332 -8.21701 0
4.94967 1.32354 0
0 0 0

1.67904 -6.9948 0
3.99916 1.36438 0
0 0 0

-0.485362 -9.11943 0
6.4283 0.512013 0
0 0 0

-0.171487 -7.48621 0
5.69551 2.88581 0
0 0 0

0.20278 -5.50458 0
4.14631 1.27115 0
0 0 0

-0.59931 -6.14843 0
5.89219 -0.000321596 0
0 0 0

-0.493245 -6.63676 0
5.05612 2.33092 0
0 0 0

-0.799116 -6.32922 0
6.28172 1.0986 0
0 0 0

SCALARS active double 1
LOOKUP_TABLE default
1
1
1
1
1
1
1
1
1
1
1
1
1
1
1
1
1
1
1
1
1
1
1
1
1
1
1
1
1
1
1
1
1
1
1
1
1
1
1
1
1
1
1
1
1
1
1
1
1
1
1
1
1
1
1
1
1
1
1
1
1
1
1
1
SCALARS extent double 1
LOOKUP_TABLE default
0.0125
0.0125
0.0125
0.0125
0.0125
0.0125
0.0125
0.0125
0.0125
0.0125
0.0125
0.0125
0.0125
0.0125
0.0125
0.0125
0.0125
0.0125
0.0125
0.0125
0.0125
0.0125
0.0125
0.0125
0.0125
0.0125
0.0125
0.0125
0.0125
0.0125
0.0125
0.0125
0.0125
0.0125
0.0125
0.0125
0.0125
0.0125
0.0125
0.0125
0.0125
0.0125
0.0125
0.0125
0.0125
0.0125
0.0125
0.0125
0.0125
0.0125
0.0125
0.0125
0.0125
0.0125
0.0125
0.0125
0.0125
0.0125
0.0125
0.0125
0.0125
0.0125
0.0125
0.0125
SCALARS pressure double 1
LOOKUP_TABLE default
1243.29
-4872.45
-2133.16
-897.609
-4338.62
-3955.3
8093.27
485.919
3400.57
-3112.06
1613.81
4850.57
-61.141
1685.58
-397.137
306.174
-2228.65
2289.4
-2495.98
-1184.65
5832.91
-6897.51
8267
1354.23
-4280.27
7488.31
2700.15
5.5501
-2366.25
1001.4
-55.6828
639.841
-4984.08
115.006
3280.25
4264.95
-4881.48
-9350.42
-2436.18
2406.1
-1816.07
-6263.77
6189.91
519.321
-3614.58
4885.1
-8866.9
963.631
-2695.23
-1936.35
-2203.98
3140.38
-872.612
490.108
3366.29
2746.29
1515.41
-360.685
-1769.77
2082.68
-1294.52
2402.68
875.882
-3356.59
SCALARS density double 1
LOOKUP_TABLE default
1015.03
943.207
974.727
989.286
949.269
953.645
1101.99
1005.85
1041.65
963.344
1019.55
1059.93
999.267
1020.43
995.246
1003.68
973.611
1027.85
970.492
985.885
1072.5
920.563
1104.29
1016.38
949.934
1094.02
1032.93
1000.07
972.004
1012.09
999.332
1007.71
941.945
1001.38
1040.15
1052.51
943.105
893.861
971.189
1029.29
978.443
927.59
1077.11
1006.25
957.552
1060.37
899.062
1011.63
968.175
977.032
973.899
1038.4
989.583
1005.9
1041.22
1033.5
1018.35
995.681
978.987
1025.31
984.586
1029.25
1010.57
960.521
