# vtk DataFile Version 3.0
Frame: 57, Time: 0.95
ASCII
DATASET UNSTRUCTURED_GRID
POINTS 64 double
0.281366 0.118642 0 
0.256925 0.113069 0 
0.27189 0.143276 0 
0.248656 0.135961 0 
0.233388 0.103908 0 
0.208134 0.0967994 0 
0.227684 0.128192 0 
0.203797 0.121883 0 
0.188091 0.0874261 0 
0.16895 0.0726888 0 
0.181902 0.111766 0 
0.159258 0.0967296 0 
0.145685 0.0638747 0 
0.13035 0.0522525 0 
0.133339 0.0858389 0 
0.114295 0.0711818 0 
0.260101 0.168862 0 
0.238466 0.159526 0 
0.254243 0.194691 0 
0.230919 0.18376 0 
0.218131 0.152238 0 
0.195257 0.144223 0 
0.208713 0.176281 0 
0.185953 0.165629 0 
0.172645 0.131907 0 
0.151298 0.118619 0 
0.162549 0.152938 0 
0.139096 0.141964 0 
0.126177 0.108623 0 
0.102266 0.09702 0 
0.115809 0.131513 0 
0.0930939 0.121239 0 
0.245646 0.220317 0 
0.222561 0.206542 0 
0.234766 0.243154 0 
0.2123 0.229222 0 
0.199775 0.198294 0 
0.176697 0.187862 0 
0.190352 0.221567 0 
0.166435 0.212114 0 
0.153971 0.176134 0 
0.131895 0.165829 0 
0.14371 0.198971 0 
0.121593 0.189561 0 
0.108639 0.153459 0 
0.0854822 0.14245 0 
0.0974431 0.176523 0 
0.0739419 0.163928 0 
0.224539 0.265646 0 
0.201996 0.252172 0 
0.211506 0.286173 0 
0.189382 0.275888 0 
0.178715 0.246316 0 
0.155733 0.234205 0 
0.1656 0.269329 0 
0.143368 0.255686 0 
0.132798 0.220896 0 
0.109622 0.211957 0 
0.120456 0.243988 0 
0.0975913 0.234043 0 
0.0870121 0.198262 0 
0.0637912 0.185711 0 
0.0768534 0.219365 0 
0.0541161 0.208189 0 
CELLS 64 128
1 0
1 1
1 2
1 3
1 4
1 5
1 6
1 7
1 8
1 9
1 10
1 11
1 12
1 13
1 14
1 15
1 16
1 17
1 18
1 19
1 20
1 21
1 22
1 23
1 24
1 25
1 26
1 27
1 28
1 29
1 30
1 31
1 32
1 33
1 34
1 35
1 36
1 37
1 38
1 39
1 40
1 41
1 42
1 43
1 44
1 45
1 46
1 47
1 48
1 49
1 50
1 51
1 52
1 53
1 54
1 55
1 56
1 57
1 58
1 59
1 60
1 61
1 62
1 63
CELL_TYPES 64
1
1
1
1
1
1
1
1
1
1
1
1
1
1
1
1
1
1
1
1
1
1
1
1
1
1
1
1
1
1
1
1
1
1
1
1
1
1
1
1
1
1
1
1
1
1
1
1
1
1
1
1
1
1
1
1
1
1
1
1
1
1
1
1
POINT_DATA 64
VECTORS displacement double
-0.131134 -0.293858 0 
-0.155575 -0.324431 0 
-0.16561 -0.269224 0 
-0.188844 -0.301539 0 
-0.179112 -0.358592 0 
-0.204366 -0.390701 0 
-0.209816 -0.334308 0 
-0.233703 -0.365617 0 
-0.224409 -0.425074 0 
-0.24355 -0.464811 0 
-0.255598 -0.400734 0 
-0.278242 -0.44077 0 
-0.266815 -0.498625 0 
-0.28215 -0.535247 0 
-0.304161 -0.476661 0 
-0.323205 -0.516318 0 
-0.202399 -0.243638 0 
-0.224034 -0.277974 0 
-0.233257 -0.217809 0 
-0.256581 -0.25374 0 
-0.244369 -0.310262 0 
-0.267243 -0.343277 0 
-0.278787 -0.286219 0 
-0.301547 -0.321871 0 
-0.289855 -0.380593 0 
-0.311202 -0.418881 0 
-0.324951 -0.359562 0 
-0.348404 -0.395536 0 
-0.336323 -0.453877 0 
-0.360234 -0.49048 0 
-0.371691 -0.430987 0 
-0.394406 -0.466261 0 
-0.266854 -0.192183 0 
-0.289939 -0.230958 0 
-0.302734 -0.169346 0 
-0.3252 -0.208278 0 
-0.312725 -0.264206 0 
-0.335803 -0.299638 0 
-0.347148 -0.240933 0 
-0.371065 -0.275386 0 
-0.358529 -0.336366 0 
-0.380605 -0.371671 0 
-0.39379 -0.313529 0 
-0.415907 -0.347939 0 
-0.403861 -0.409041 0 
-0.427018 -0.44505 0 
-0.440057 -0.385977 0 
-0.463558 -0.423572 0 
-0.337961 -0.146854 0 
-0.360504 -0.185328 0 
-0.375994 -0.126327 0 
-0.398118 -0.161612 0 
-0.383785 -0.216184 0 
-0.406767 -0.253295 0 
-0.4219 -0.193171 0 
-0.444132 -0.231814 0 
-0.429702 -0.291604 0 
-0.452878 -0.325543 0 
-0.467044 -0.268512 0 
-0.489909 -0.303457 0 
-0.475488 -0.364238 0 
-0.498709 -0.401789 0 
-0.510647 -0.343135 0 
-0.533384 -0.379311 0 
VECTORS velocity double
0.371048 1.45964 0 
0.363365 1.90945 0 
0.117104 2.00449 0 
0.701961 2.02038 0 
0.750851 1.66132 0 
0.202089 1.91231 0 
1.1374 1.40421 0 
0.640603 1.53193 0 
0.826795 1.51342 0 
-0.300098 1.24834 0 
1.44594 1.25791 0 
0.49715 1.5383 0 
0.06906 1.0647 0 
0.0763351 0.937911 0 
0.536877 1.85157 0 
0.313857 1.45317 0 
0.0892806 2.24711 0 
0.168773 2.14717 0 
-0.00497034 2.57166 0 
-0.325728 1.90366 0 
0.569049 1.59746 0 
0.546801 1.21992 0 
-0.622792 1.30809 0 
-0.814142 0.951652 0 
1.02353 0.868442 0 
0.712014 1.08683 0 
-0.320963 0.802652 0 
-0.259711 1.49687 0 
0.467519 0.899843 0 
0.466004 1.30832 0 
0.0286431 1.44388 0 
-0.0569999 1.33971 0 
-0.0224069 2.15314 0 
0.0121044 1.42349 0 
-0.319932 1.76112 0 
0.0661463 1.31636 0 
-0.0108136 1.2872 0 
-0.022161 0.997923 0 
0.0566569 1.45892 0 
-0.0810955 1.40633 0 
0.115048 0.596311 0 
0.112069 1.1898 0 
-0.211068 0.927902 0 
-0.375622 1.2589 0 
-0.0839783 0.915831 0 
-0.29296 0.634383 0 
-0.131612 1.59029 0 
-0.177566 0.610319 0 
-0.206708 2.1494 0 
-0.0444797 1.36994 0 
-0.707805 1.4498 0 
-0.730317 1.06784 0 
0.0896047 1.24226 0 
0.304294 1.48471 0 
-0.867368 0.670217 0 
-0.422925 0.923888 0 
0.130034 0.956195 0 
-0.271257 0.824972 0 
-0.724286 0.404501 0 
-0.558542 0.927136 0 
0.280026 1.13816 0 
-0.193735 0.520035 0 
-0.621499 0.620045 0 
-0.536985 0.278672 0 
SCALARS mass double 1
LOOKUP_TABLE default
0.625
0.625
0.625
0.625
0.625
0.625
0.625
0.625
0.625
0.625
0.625
0.625
0.625
0.625
0.625
0.625
0.625
0.625
0.625
0.625
0.625
0.625
0.625
0.625
0.625
0.625
0.625
0.625
0.625
0.625
0.625
0.625
0.625
0.625
0.625
0.625
0.625
0.625
0.625
0.625
0.625
0.625
0.625
0.625
0.625
0.625
0.625
0.625
0.625
0.625
0.625
0.625
0.625
0.625
0.625
0.625
0.625
0.625
0.625
0.625
0.625
0.625
0.625
0.625
SCALARS volume double 1
LOOKUP_TABLE default
0.000628786
0.000606155
0.000620728
0.000607867
0.00061606
0.000654104
0.000595429
0.000593905
0.000579926
0.000622333
0.000586818
0.000671891
0.000613073
0.000591048
0.000599083
0.000620626
0.000625056
0.000625767
0.00066445
0.000665272
0.000607808
0.000584215
0.000612257
0.00060769
0.000616342
0.000649939
0.000613525
0.00062647
0.000647922
0.000658898
0.000584076
0.000626266
0.000652979
0.000621058
0.000653357
0.000612298
0.000652242
0.000654688
0.000628728
0.000616163
0.000630681
0.000631281
0.000633106
0.000646742
0.00058917
0.000591498
0.000648262
0.000620706
0.000617377
0.00066527
0.000635715
0.000628497
0.000653598
0.000634066
0.000621943
0.000644771
0.000622775
0.000633458
0.000627272
0.000643501
0.000605829
0.000614418
0.000624745
0.000633928
VECTORS momentum double
0.231905 0.912275 0 
0.227103 1.19341 0 
0.07319 1.25281 0 
0.438726 1.26274 0 
0.469282 1.03833 0 
0.126305 1.1952 0 
0.710875 0.877629 0 
0.400377 0.957457 0 
0.516747 0.94589 0 
-0.187562 0.780213 0 
0.903713 0.786196 0 
0.310719 0.961439 0 
0.0431625 0.66544 0 
0.0477094 0.586195 0 
0.335548 1.15723 0 
0.19616 0.908228 0 
0.0558004 1.40444 0 
0.105483 1.34198 0 
-0.00310646 1.60729 0 
-0.20358 1.18979 0 
0.355655 0.998412 0 
0.341751 0.762447 0 
-0.389245 0.817559 0 
-0.508839 0.594783 0 
0.639705 0.542776 0 
0.445009 0.679269 0 
-0.200602 0.501658 0 
-0.162319 0.935544 0 
0.2922 0.562402 0 
0.291252 0.817701 0 
0.017902 0.902425 0 
-0.0356249 0.83732 0 
-0.0140043 1.34571 0 
0.00756527 0.88968 0 
-0.199957 1.1007 0 
0.0413415 0.822728 0 
-0.00675849 0.804497 0 
-0.0138506 0.623702 0 
0.0354105 0.911824 0 
-0.0506847 0.878954 0 
0.071905 0.372694 0 
0.0700429 0.743624 0 
-0.131917 0.579939 0 
-0.234764 0.78681 0 
-0.0524864 0.572394 0 
-0.1831 0.396489 0 
-0.0822575 0.99393 0 
-0.110979 0.38145 0 
-0.129192 1.34337 0 
-0.0277998 0.856212 0 
-0.442378 0.906124 0 
-0.456448 0.667398 0 
0.0560029 0.776413 0 
0.190183 0.927946 0 
-0.542105 0.418886 0 
-0.264328 0.57743 0 
0.081271 0.597622 0 
-0.169535 0.515608 0 
-0.452679 0.252813 0 
-0.349089 0.57946 0 
0.175016 0.711349 0 
-0.121085 0.325022 0 
-0.388437 0.387528 0 
-0.335616 0.17417 0 
VECTORS body_force double
0 -9.81 0 
0 -9.81 0 
0 -9.81 0 
0 -9.81 0 
0 -9.81 0 
0 -9.81 0 
0 -9.81 0 
0 -9.81 0 
0 -9.81 0 
0 -9.81 0 
0 -9.81 0 
0 -9.81 0 
0 -9.81 0 
0 -9.81 0 
0 -9.81 0 
0 -9.81 0 
0 -9.81 0 
0 -9.81 0 
0 -9.81 0 
0 -9.81 0 
0 -9.81 0 
0 -9.81 0 
0 -9.81 0 
0 -9.81 0 
0 -9.81 0 
0 -9.81 0 
0 -9.81 0 
0 -9.81 0 
0 -9.81 0 
0 -9.81 0 
0 -9.81 0 
0 -9.81 0 
0 -9.81 0 
0 -9.81 0 
0 -9.81 0 
0 -9.81 0 
0 -9.81 0 
0 -9.81 0 
0 -9.81 0 
0 -9.81 0 
0 -9.81 0 
0 -9.81 0 
0 -9.81 0 
0 -9.81 0 
0 -9.81 0 
0 -9.81 0 
0 -9.81 0 
0 -9.81 0 
0 -9.81 0 
0 -9.81 0 
0 -9.81 0 
0 -9.81 0 
0 -9.81 0 
0 -9.81 0 
0 -9.81 0 
0 -9.81 0 
0 -9.81 0 
0 -9.81 0 
0 -9.81 0 
0 -9.81 0 
0 -9.81 0 
0 -9.81 0 
0 -9.81 0 
0 -9.81 0 
TENSORS cauchy_stress double
-1830.25 -2703.87 0
-2703.87 2991.79 0
0 0 348.462

-3060.47 417.654 0
417.654 -2827.31 0
0 0 -1766.33

-4641.42 -7995.26 0
-7995.26 3322.59 0
0 0 -395.649

-7831.35 1891.74 0
1891.74 2485.9 0
0 0 -1603.63

-1897.62 1400.76 0
1400.76 -872.96 0
0 0 -831.173

5362.61 4935.16 0
4935.16 3390.17 0
0 0 2625.83

-10521.7 2207.22 0
2207.22 1200.73 0
0 0 -2796.28

-7283.84 -462.918 0
-462.918 -2529.99 0
0 0 -2944.15

-11895.3 -824.862 0
-824.862 -2499.22 0
0 0 -4318.36

5169.04 -3931.46 0
-3931.46 -5991.43 0
0 0 -246.719

-12787.4 9653.71 0
9653.71 664.795 0
0 0 -3636.77

5611.25 7660.12 0
7660.12 8301.26 0
0 0 4173.75

4248.98 -12989.9 0
-12989.9 -7954.19 0
0 0 -1111.57

4096.98 -8637.24 0
-8637.24 -14838.3 0
0 0 -3222.4

-9031.93 7227.01 0
7227.01 887.254 0
0 0 -2443.4

-5532.93 5458.51 0
5458.51 4182.33 0
0 0 -405.18

-8637.73 -10722.4 0
-10722.4 8655.04 0
0 0 5.19139

-239.187 -4275.28 0
-4275.28 474.987 0
0 0 70.7398

2103.68 -5693.21 0
-5693.21 9667.16 0
0 0 3531.25

7398.59 896.588 0
896.588 4609.97 0
0 0 3602.57

-3977.14 -5984.54 0
-5984.54 -1386.97 0
0 0 -1609.23

-2615.05 -3318.85 0
-3318.85 -10362.4 0
0 0 -3893.23

-3235.29 217.964 0
217.964 -726.292 0
0 0 -1188.48

-1462.05 3957.98 0
3957.98 -3939.35 0
0 0 -1620.42

5677.42 -394.549 0
-394.549 -8359.99 0
0 0 -804.771

5966.85 -5089.77 0
-5089.77 1557.55 0
0 0 2257.32

-3200.99 4209.24 0
4209.24 -362.47 0
0 0 -1069.04

589.861 3463.81 0
3463.81 -138.068 0
0 0 135.538

2149.75 5509.74 0
5509.74 4776.93 0
0 0 2078

1647.99 -381.484 0
-381.484 8509.18 0
0 0 3047.15

-8339.56 4115.75 0
4115.75 -4683.73 0
0 0 -3906.98

-312.179 554.41 0
554.41 701.174 0
0 0 116.699

2629.97 -1435 0
-1435 5791.7 0
0 0 2526.5

916.59 598.362 0
598.362 -2133.42 0
0 0 -365.048

4434.84 -149.532 0
-149.532 4098.31 0
0 0 2559.95

-1814.45 -2567.04 0
-2567.04 -2134.05 0
0 0 -1184.55

6229.65 -2125.39 0
-2125.39 1974.93 0
0 0 2461.37

7617.95 -4246.7 0
-4246.7 1306.47 0
0 0 2677.33

974.877 -867.78 0
-867.78 168.772 0
0 0 343.095

-2866.17 5446.39 0
5446.39 127.586 0
0 0 -821.575

6191.33 -1176.84 0
-1176.84 -4451.08 0
0 0 522.074

2395.51 91.2874 0
91.2874 -472.462 0
0 0 576.914

825.781 2483.59 0
2483.59 1652.27 0
0 0 743.416

1681.96 1567.45 0
1567.45 4894.25 0
0 0 1972.86

-3954.84 2971.3 0
2971.3 -7398.45 0
0 0 -3405.99

-5556.6 6388.28 0
6388.28 -5038.12 0
0 0 -3178.42

5210.52 5831.4 0
5831.4 1817.07 0
0 0 2108.28

371.634 -216.742 0
-216.742 -1697.39 0
0 0 -397.725

-4094.05 120.388 0
120.388 1734.12 0
0 0 -707.978

6267.64 -2056.16 0
-2056.16 5740.35 0
0 0 3602.4

809.987 52.1757 0
52.1757 2458.95 0
0 0 980.681

1969.04 -2715.31 0
-2715.31 -895.978 0
0 0 321.919

4249.63 -1007.7 0
-1007.7 4354.31 0
0 0 2581.18

3074.19 -2332.97 0
-2332.97 -304.785 0
0 0 830.821

-327.978 1125.19 0
1125.19 -614.841 0
0 0 -282.846

4989.73 2364.8 0
2364.8 999.482 0
0 0 1796.76

4175.25 -1877.1 0
-1877.1 -4861.2 0
0 0 -205.783

4235.36 176.663 0
176.663 -1650.23 0
0 0 775.538

1562.4 -1256.01 0
-1256.01 -864.619 0
0 0 209.335

3561.56 1117.42 0
1117.42 2048.35 0
0 0 1682.97

-162.834 3382.78 0
3382.78 -5828.21 0
0 0 -1797.31

-1104.24 1562.27 0
1562.27 -2179.53 0
0 0 -985.132

-1088.11 734.144 0
734.144 1009.72 0
0 0 -23.5175

1944.87 3621.15 0
3621.15 782.768 0
0 0 818.292

TENSORS velocity_gradient double
-3.20101 -3.91192 0
-0.186911 4.11752 0
0 0 0

-3.5337 -5.38426 0
0.120682 5.47882 0
0 0 0

-1.73056 -4.47545 0
-1.54646 4.63855 0
0 0 0

-0.433971 -5.99871 0
6.34056 5.02972 0
0 0 0

-1.78184 -4.6206 0
5.37504 1.64919 0
0 0 0

-1.40242 4.32295 0
4.55926 -2.4768 0
0 0 0

-0.140966 -7.85034 0
9.30371 1.9531 0
0 0 0

0.154685 -9.87912 0
7.22149 -1.98643 0
0 0 0

3.78603 8.21929 0
3.95492 -1.71788 0
0 0 0

4.2947 8.87657 0
5.57546 0.376125 0
0 0 0

3.11093 -10.0051 0
3.13517 -4.01005 0
0 0 0

3.47301 6.76214 0
3.06222 0.543107 0
0 0 0

-1.10305 8.3903 0
0.934566 2.17626 0
0 0 0

-3.61441 4.51869 0
-0.21598 11.1978 0
0 0 0

2.46723 6.04019 0
0.687252 1.92515 0
0 0 0

-0.525347 2.1592 0
0.25113 1.35955 0
0 0 0

-1.14235 -5.94525 0
3.54168 2.84897 0
0 0 0

2.00316 -5.98614 0
13.0862 -0.094083 0
0 0 0

-0.539774 -5.96485 0
12.0778 1.32812 0
0 0 0

2.0017 -5.9857 0
12.3909 0.11705 0
0 0 0

1.74846 -7.19856 0
12.7314 0.429074 0
0 0 0

2.40473 -10.1836 0
6.09249 -2.98699 0
0 0 0

2.00213 -5.98436 0
12.5966 0.75173 0
0 0 0

1.53534 -5.14036 0
6.03833 0.884382 0
0 0 0

2.74383 -9.84154 0
4.56083 -4.64531 0
0 0 0

3.81756 -9.39614 0
2.27976 -5.85966 0
0 0 0

2.19262 -5.83933 0
5.79865 -1.44382 0
0 0 0

4.00527 -8.99936 0
-0.452678 -5.78478 0
0 0 0

5.33696 -8.47696 0
0.860158 -5.26978 0
0 0 0

3.73309 -1.40783 0
0.658232 -0.97184 0
0 0 0

4.4229 -8.07465 0
-0.0409609 -4.87317 0
0 0 0

2.92349 -7.37556 0
4.49828 -4.64457 0
0 0 0

0.618909 -4.05145 0
10.7615 -2.0912 0
0 0 0

1.72139 -3.23366 0
11.5271 -0.368616 0
0 0 0

-0.0736851 -3.51779 0
9.13515 -1.27093 0
0 0 0

0.613616 -2.39083 0
10.0436 0.218683 0
0 0 0

0.80626 -4.84301 0
9.06065 0.84486 0
0 0 0

0.206025 -4.59483 0
6.21907 0.810209 0
0 0 0

0.111247 -2.09716 0
7.07041 0.693944 0
0 0 0

-0.211002 -2.92807 0
6.72954 -0.184978 0
0 0 0

1.29662 -3.27925 0
5.11868 0.570726 0
0 0 0

3.31566 -2.59968 0
0.0220653 -0.423354 0
0 0 0

2.68362 -3.14274 0
1.93682 -0.252558 0
0 0 0

2.79039 -2.37389 0
1.35834 -0.997752 0
0 0 0

3.62371 -3.84688 0
-0.491414 -2.6141 0
0 0 0

2.69383 -7.2956 0
5.67719 -5.05502 0
0 0 0

2.48082 -1.87081 0
4.74059 -2.18278 0
0 0 0

2.40373 -1.50166 0
6.36775 -2.6496 0
0 0 0

0.540069 -6.45544 0
8.3465 -2.95715 0
0 0 0

0.323512 -5.42508 0
8.55406 -1.23212 0
0 0 0

2.07714 -7.41173 0
8.02184 -2.75516 0
0 0 0

2.39594 -8.81882 0
9.55105 -3.14202 0
0 0 0

0.983478 -3.22192 0
7.99474 -0.154261 0
0 0 0

0.637533 -3.29653 0
7.46137 -0.580977 0
0 0 0

2.07255 -10.0283 0
9.19245 -4.48315 0
0 0 0

1.98497 -7.834 0
4.09925 -3.4181 0
0 0 0

3.16971 -4.04262 0
3.43634 -2.0168 0
0 0 0

2.88722 -4.77784 0
2.796 -3.68338 0
0 0 0

3.90671 -4.4302 0
5.10696 -2.89535 0
0 0 0

3.86544 -5.29273 0
5.06287 -4.04432 0
0 0 0

2.02905 -2.92886 0
6.82235 -2.82618 0
0 0 0

2.07159 -1.3486 0
6.73229 -2.8176 0
0 0 0

3.05437 -6.57133 0
6.09755 -3.31091 0
0 0 0

0.966977 -7.84325 0
7.37487 -2.2358 0
0 0 0

SCALARS active double 1
LOOKUP_TABLE default
1
1
1
1
1
1
1
1
1
1
1
1
1
1
1
1
1
1
1
1
1
1
1
1
1
1
1
1
1
1
1
1
1
1
1
1
1
1
1
1
1
1
1
1
1
1
1
1
1
1
1
1
1
1
1
1
1
1
1
1
1
1
1
1
SCALARS extent double 1
LOOKUP_TABLE default
0.0125
0.0125
0.0125
0.0125
0.0125
0.0125
0.0125
0.0125
0.0125
0.0125
0.0125
0.0125
0.0125
0.0125
0.0125
0.0125
0.0125
0.0125
0.0125
0.0125
0.0125
0.0125
0.0125
0.0125
0.0125
0.0125
0.0125
0.0125
0.0125
0.0125
0.0125
0.0125
0.0125
0.0125
0.0125
0.0125
0.0125
0.0125
0.0125
0.0125
0.0125
0.0125
0.0125
0.0125
0.0125
0.0125
0.0125
0.0125
0.0125
0.0125
0.0125
0.0125
0.0125
0.0125
0.0125
0.0125
0.0125
0.0125
0.0125
0.0125
0.0125
0.0125
0.0125
0.0125
SCALARS pressure double 1
LOOKUP_TABLE default
-503.334
2551.37
571.493
2316.36
1200.58
-3792.87
4039.07
4252.66
6237.63
356.372
5253.12
-6028.75
1605.59
4654.58
3529.36
585.259
-7.49868
-102.18
-5100.7
-5203.71
2324.45
5623.56
1716.69
2340.61
1162.45
-3260.57
1544.17
-195.777
-3001.56
-4401.44
5643.42
-168.565
-3649.39
527.291
-3697.7
1711.02
-3555.32
-3867.25
-495.581
1186.72
-754.107
-833.32
-1073.82
-2849.69
4919.76
4591.05
-3045.29
574.492
1022.63
-5203.46
-1416.54
-464.994
-3728.37
-1200.07
408.555
-2595.33
297.243
-1120.22
-302.373
-2430.96
2596.12
1422.97
33.9698
-1181.98
SCALARS density double 1
LOOKUP_TABLE default
993.978
1031.09
1006.88
1028.19
1014.51
955.506
1049.66
1052.36
1077.72
1004.29
1065.07
930.21
1019.45
1057.44
1043.26
1007.05
999.91
998.775
940.627
939.465
1028.29
1069.81
1020.81
1028.49
1014.05
961.629
1018.7
997.653
964.622
948.553
1070.07
997.979
957.152
1006.35
956.598
1020.74
958.233
954.653
994.071
1014.34
990.992
990.05
987.197
966.382
1060.81
1056.64
964.116
1006.92
1012.35
939.468
983.145
994.436
956.246
985.702
1004.91
969.336
1003.57
986.647
996.378
971.25
1031.64
1017.22
1000.41
985.916
