# vtk DataFile Version 3.0
Frame: 39, Time: 0.65
ASCII
DATASET UNSTRUCTURED_GRID
POINTS 64 double
0.7798 0.504711 0 
0.787789 0.481047 0 
0.753684 0.496976 0 
0.7609 0.472462 0 
0.79434 0.457796 0 
0.803045 0.433303 0 
0.768731 0.449364 0 
0.777374 0.425291 0 
0.81224 0.410138 0 
0.818887 0.386528 0 
0.785737 0.402437 0 
0.793556 0.379667 0 
0.829261 0.363335 0 
0.839886 0.342011 0 
0.804491 0.356555 0 
0.81273 0.333196 0 
0.728775 0.488598 0 
0.735486 0.464519 0 
0.704723 0.481038 0 
0.71185 0.455143 0 
0.744641 0.441151 0 
0.75318 0.418504 0 
0.720294 0.431681 0 
0.728648 0.409427 0 
0.760267 0.394528 0 
0.768935 0.371347 0 
0.736294 0.385514 0 
0.74494 0.36232 0 
0.779835 0.348029 0 
0.789057 0.323362 0 
0.754552 0.340245 0 
0.763627 0.315524 0 
0.679299 0.472893 0 
0.685175 0.447602 0 
0.654275 0.463532 0 
0.660825 0.438667 0 
0.695957 0.424382 0 
0.702184 0.399689 0 
0.672144 0.414993 0 
0.676521 0.391168 0 
0.71044 0.37591 0 
0.720457 0.353881 0 
0.684467 0.367244 0 
0.694961 0.345523 0 
0.728832 0.331433 0 
0.738327 0.307498 0 
0.702696 0.322267 0 
0.714656 0.299248 0 
0.631047 0.454228 0 
0.637897 0.430331 0 
0.604343 0.446522 0 
0.611414 0.422452 0 
0.647467 0.407285 0 
0.652502 0.381393 0 
0.621082 0.399321 0 
0.626947 0.374033 0 
0.66 0.357336 0 
0.670339 0.333777 0 
0.634966 0.350983 0 
0.645681 0.325622 0 
0.679314 0.309696 0 
0.691859 0.287807 0 
0.6555 0.300879 0 
0.669062 0.27844 0 
CELLS 64 128
1 0
1 1
1 2
1 3
1 4
1 5
1 6
1 7
1 8
1 9
1 10
1 11
1 12
1 13
1 14
1 15
1 16
1 17
1 18
1 19
1 20
1 21
1 22
1 23
1 24
1 25
1 26
1 27
1 28
1 29
1 30
1 31
1 32
1 33
1 34
1 35
1 36
1 37
1 38
1 39
1 40
1 41
1 42
1 43
1 44
1 45
1 46
1 47
1 48
1 49
1 50
1 51
1 52
1 53
1 54
1 55
1 56
1 57
1 58
1 59
1 60
1 61
1 62
1 63
CELL_TYPES 64
1
1
1
1
1
1
1
1
1
1
1
1
1
1
1
1
1
1
1
1
1
1
1
1
1
1
1
1
1
1
1
1
1
1
1
1
1
1
1
1
1
1
1
1
1
1
1
1
1
1
1
1
1
1
1
1
1
1
1
1
1
1
1
1
POINT_DATA 64
VECTORS displacement double
0.2673 -0.107789 0 
0.275289 -0.156453 0 
0.216184 -0.115524 0 
0.2234 -0.165038 0 
0.28184 -0.204704 0 
0.290545 -0.254197 0 
0.231231 -0.213136 0 
0.239874 -0.262209 0 
0.29974 -0.302362 0 
0.306387 -0.350972 0 
0.248237 -0.310063 0 
0.256056 -0.357833 0 
0.316761 -0.399165 0 
0.327386 -0.445489 0 
0.266991 -0.405945 0 
0.27523 -0.454304 0 
0.166275 -0.123902 0 
0.172986 -0.172981 0 
0.117223 -0.131462 0 
0.12435 -0.182357 0 
0.182141 -0.221349 0 
0.19068 -0.268996 0 
0.132794 -0.230819 0 
0.141148 -0.278073 0 
0.197767 -0.317972 0 
0.206435 -0.366153 0 
0.148794 -0.326986 0 
0.15744 -0.37518 0 
0.217335 -0.414471 0 
0.226557 -0.464138 0 
0.167052 -0.422255 0 
0.176127 -0.471976 0 
0.0667987 -0.139607 0 
0.0726754 -0.189898 0 
0.0167749 -0.148968 0 
0.0233247 -0.198833 0 
0.0834569 -0.238118 0 
0.0896837 -0.287811 0 
0.034644 -0.247507 0 
0.0390208 -0.296332 0 
0.0979399 -0.33659 0 
0.107957 -0.383619 0 
0.0469671 -0.345256 0 
0.0574606 -0.391977 0 
0.116332 -0.431067 0 
0.125827 -0.480002 0 
0.0651961 -0.440233 0 
0.077156 -0.488252 0 
-0.0314535 -0.158272 0 
-0.0246026 -0.207169 0 
-0.0831569 -0.165978 0 
-0.0760864 -0.215048 0 
-0.0150331 -0.255215 0 
-0.00999773 -0.306107 0 
-0.0664179 -0.263179 0 
-0.0605526 -0.313467 0 
-0.00249991 -0.355164 0 
0.00783931 -0.403723 0 
-0.0525341 -0.361517 0 
-0.0418195 -0.411878 0 
0.0168143 -0.452804 0 
0.0293589 -0.499693 0 
-0.0319999 -0.461621 0 
-0.0184376 -0.50906 0 
VECTORS velocity double
-2.587 0.212252 0 
-1.63744 0.414785 0 
-2.43608 0.06351 0 
-1.46893 0.316512 0 
-1.77476 0.471184 0 
-1.29788 0.0170247 0 
-1.75646 0.369379 0 
-1.34801 -0.048536 0 
-0.998595 0.582971 0 
-1.78312 0.450315 0 
-1.21229 0.289925 0 
-1.59041 0.0679621 0 
-1.12793 0.5562 0 
-0.686612 0.455626 0 
-0.50094 0.193973 0 
-1.271 0.763686 0 
-1.98895 -0.285269 0 
-1.32449 -0.996272 0 
-1.81191 0.0343086 0 
-1.36556 -0.183138 0 
-1.0433 -0.497879 0 
-0.926361 -0.696147 0 
-1.75793 0.239368 0 
-1.74559 0.2202 0 
-1.02027 -0.381702 0 
-1.17139 -0.252946 0 
-1.04429 -0.0758112 0 
-0.982488 0.135046 0 
-0.829891 -0.361496 0 
-0.373246 -0.465247 0 
-0.913235 0.208588 0 
-1.10437 0.424533 0 
-1.22478 -0.701443 0 
-0.830525 -0.404408 0 
-1.7762 -0.80063 0 
-1.19789 -0.265596 0 
-1.37528 -0.340243 0 
-1.51626 -0.251905 0 
-1.77972 -0.915736 0 
-1.75111 -0.74155 0 
-0.155204 -0.145143 0 
-0.793028 -0.0655597 0 
-0.844394 -0.946614 0 
-1.44812 -0.441343 0 
-0.860294 -0.31951 0 
-0.896266 -0.100021 0 
-1.01927 -0.535449 0 
-0.793526 -0.270468 0 
-1.63232 0.151016 0 
-1.24326 0.202537 0 
-1.7356 -0.331875 0 
-1.10579 -0.733739 0 
-1.46987 0.247408 0 
-1.29898 0.392496 0 
-1.42289 -0.545299 0 
-1.48163 -0.45959 0 
-1.19599 0.0411451 0 
-1.88443 -0.104928 0 
-0.82745 -0.229178 0 
-0.751612 -0.46587 0 
-1.20771 -0.0788443 0 
-0.811577 -0.0897396 0 
-1.34929 -0.223088 0 
-0.828455 -0.300612 0 
SCALARS mass double 1
LOOKUP_TABLE default
0.625
0.625
0.625
0.625
0.625
0.625
0.625
0.625
0.625
0.625
0.625
0.625
0.625
0.625
0.625
0.625
0.625
0.625
0.625
0.625
0.625
0.625
0.625
0.625
0.625
0.625
0.625
0.625
0.625
0.625
0.625
0.625
0.625
0.625
0.625
0.625
0.625
0.625
0.625
0.625
0.625
0.625
0.625
0.625
0.625
0.625
0.625
0.625
0.625
0.625
0.625
0.625
0.625
0.625
0.625
0.625
0.625
0.625
0.625
0.625
0.625
0.625
0.625
0.625
SCALARS volume double 1
LOOKUP_TABLE default
0.000626202
0.000599268
0.000650974
0.00061913
0.000631401
0.00063525
0.000635173
0.000621103
0.000604472
0.000623877
0.000631597
0.000609751
0.000639545
0.000633482
0.000600016
0.000604734
0.000600187
0.000625041
0.000661064
0.000645961
0.000621056
0.000598567
0.000601068
0.000627113
0.000631457
0.000640774
0.000642418
0.000598498
0.000632638
0.00063987
0.000634955
0.000633767
0.000631874
0.000641741
0.000635792
0.00063773
0.000627399
0.000682156
0.000628904
0.000605113
0.000652426
0.000567909
0.00064038
0.00061708
0.000627846
0.000588519
0.000666593
0.000631001
0.000621288
0.000605412
0.000653681
0.000610949
0.000644992
0.000606485
0.000606829
0.00061827
0.000643704
0.000642255
0.00062553
0.000628121
0.000577252
0.000613153
0.000665129
0.000633748
VECTORS momentum double
-1.61687 0.132658 0 
-1.0234 0.25924 0 
-1.52255 0.0396937 0 
-0.918079 0.19782 0 
-1.10923 0.29449 0 
-0.811173 0.0106405 0 
-1.09779 0.230862 0 
-0.842504 -0.030335 0 
-0.624122 0.364357 0 
-1.11445 0.281447 0 
-0.757683 0.181203 0 
-0.994009 0.0424763 0 
-0.704954 0.347625 0 
-0.429132 0.284766 0 
-0.313088 0.121233 0 
-0.794377 0.477304 0 
-1.2431 -0.178293 0 
-0.827806 -0.62267 0 
-1.13245 0.0214429 0 
-0.853476 -0.114461 0 
-0.652061 -0.311174 0 
-0.578976 -0.435092 0 
-1.0987 0.149605 0 
-1.091 0.137625 0 
-0.637667 -0.238564 0 
-0.732121 -0.158092 0 
-0.652682 -0.047382 0 
-0.614055 0.0844039 0 
-0.518682 -0.225935 0 
-0.233279 -0.290779 0 
-0.570772 0.130368 0 
-0.690231 0.265333 0 
-0.765489 -0.438402 0 
-0.519078 -0.252755 0 
-1.11013 -0.500394 0 
-0.748679 -0.165997 0 
-0.859549 -0.212652 0 
-0.947661 -0.157441 0 
-1.11232 -0.572335 0 
-1.09445 -0.463469 0 
-0.0970027 -0.0907142 0 
-0.495642 -0.0409748 0 
-0.527746 -0.591634 0 
-0.905073 -0.27584 0 
-0.537684 -0.199694 0 
-0.560166 -0.0625134 0 
-0.637042 -0.334656 0 
-0.495954 -0.169042 0 
-1.0202 0.094385 0 
-0.77704 0.126586 0 
-1.08475 -0.207422 0 
-0.691119 -0.458587 0 
-0.918667 0.15463 0 
-0.811861 0.24531 0 
-0.889308 -0.340812 0 
-0.926021 -0.287244 0 
-0.747497 0.0257157 0 
-1.17777 -0.0655801 0 
-0.517157 -0.143236 0 
-0.469758 -0.291169 0 
-0.754819 -0.0492777 0 
-0.507236 -0.0560873 0 
-0.843308 -0.13943 0 
-0.517784 -0.187882 0 
VECTORS body_force double
0 -9.81 0 
0 -9.81 0 
0 -9.81 0 
0 -9.81 0 
0 -9.81 0 
0 -9.81 0 
0 -9.81 0 
0 -9.81 0 
0 -9.81 0 
0 -9.81 0 
0 -9.81 0 
0 -9.81 0 
0 -9.81 0 
0 -9.81 0 
0 -9.81 0 
0 -9.81 0 
0 -9.81 0 
0 -9.81 0 
0 -9.81 0 
0 -9.81 0 
0 -9.81 0 
0 -9.81 0 
0 -9.81 0 
0 -9.81 0 
0 -9.81 0 
0 -9.81 0 
0 -9.81 0 
0 -9.81 0 
0 -9.81 0 
0 -9.81 0 
0 -9.81 0 
0 -9.81 0 
0 -9.81 0 
0 -9.81 0 
0 -9.81 0 
0 -9.81 0 
0 -9.81 0 
0 -9.81 0 
0 -9.81 0 
0 -9.81 0 
0 -9.81 0 
0 -9.81 0 
0 -9.81 0 
0 -9.81 0 
0 -9.81 0 
0 -9.81 0 
0 -9.81 0 
0 -9.81 0 
0 -9.81 0 
0 -9.81 0 
0 -9.81 0 
0 -9.81 0 
0 -9.81 0 
0 -9.81 0 
0 -9.81 0 
0 -9.81 0 
0 -9.81 0 
0 -9.81 0 
0 -9.81 0 
0 -9.81 0 
0 -9.81 0 
0 -9.81 0 
0 -9.81 0 
0 -9.81 0 
TENSORS cauchy_stress double
2024.37 -318.477 0
-318.477 -1654.79 0
0 0 110.876

555.352 -1805.43 0
-1805.43 -8640.39 0
0 0 -2425.51

5039.23 2307.27 0
2307.27 2791.19 0
0 0 2349.12

571.917 3377.74 0
3377.74 -2386.59 0
0 0 -544.402

1924.01 -298.398 0
-298.398 35.5953 0
0 0 587.882

3105.93 1244.88 0
1244.88 22.289 0
0 0 938.465

2102.39 -1628.26 0
-1628.26 1002.71 0
0 0 931.531

178.133 2611.33 0
2611.33 -1380.97 0
0 0 -360.85

272.256 -2236.37 0
-2236.37 -6694.7 0
0 0 -1926.73

985.646 144.65 0
144.65 -1331.54 0
0 0 -103.768

6947.79 1999.76 0
1999.76 -4928.51 0
0 0 605.784

-1004.41 10.2231 0
10.2231 -3745.86 0
0 0 -1425.08

3435.42 123.724 0
123.724 988.629 0
0 0 1327.22

1285.46 1522.28 0
1522.28 1306.95 0
0 0 777.722

-3253.97 279.272 0
279.272 -4591.14 0
0 0 -2353.53

-131.708 999.636 0
999.636 -6207.39 0
0 0 -1901.73

-1512.7 2061.79 0
2061.79 -6277.69 0
0 0 -2337.11

3094.6 -629.8 0
-629.8 -3081.95 0
0 0 3.7972

4506.5 2631.45 0
2631.45 6281.66 0
0 0 3236.45

7156.56 -253.294 0
-253.294 -812.742 0
0 0 1903.15

1463.03 2622.28 0
2622.28 -2680.43 0
0 0 -365.219

-3562.61 2690.32 0
2690.32 -4747.63 0
0 0 -2493.07

-3241.8 913.596 0
913.596 -4266.52 0
0 0 -2252.5

4864.95 600.454 0
600.454 -4215.81 0
0 0 194.742

926.575 2267.96 0
2267.96 1049.89 0
0 0 592.939

6451.07 -2598.36 0
-2598.36 -1657.91 0
0 0 1437.95

4655.32 -1465.07 0
-1465.07 630.786 0
0 0 1585.83

874.688 -1389.08 0
-1389.08 -9207.02 0
0 0 -2499.7

1114.94 388.913 0
388.913 1220.97 0
0 0 700.772

-2191.21 2656.2 0
2656.2 6712.93 0
0 0 1356.52

6341.16 -1364.16 0
-1364.16 -3302.1 0
0 0 911.719

4627.07 -1725.09 0
-1725.09 -1948.18 0
0 0 803.668

2697.15 636.113 0
636.113 -593.544 0
0 0 631.083

5094.05 -164.853 0
-164.853 -10.7352 0
0 0 1525

3743.3 267.781 0
267.781 -450.921 0
0 0 987.712

2409.34 -3296.95 0
-3296.95 1468.14 0
0 0 1163.24

-246.771 -2348 0
-2348 983.369 0
0 0 220.979

8141.01 6365.1 0
6365.1 8687.12 0
0 0 5048.44

1141.86 3395.22 0
3395.22 55.6557 0
0 0 359.255

1246.95 6629.32 0
6629.32 -7465.61 0
0 0 -1865.6

10349.7 -1270.41 0
-1270.41 -2090.86 0
0 0 2477.66

-7627.56 3906.62 0
3906.62 -10793.7 0
0 0 -5526.38

3183.47 -591.672 0
-591.672 1491.53 0
0 0 1402.5

2186.16 5908.14 0
5908.14 -4638.52 0
0 0 -735.709

1790.91 1969.09 0
1969.09 -917.201 0
0 0 262.113

-5903.07 2343.64 0
2343.64 -5662.72 0
0 0 -3469.74

12237 776.674 0
776.674 153.037 0
0 0 3717.02

932.702 -2392.31 0
-2392.31 905.065 0
0 0 551.33

3017.09 -1087.1 0
-1087.1 -4162.67 0
0 0 -343.675

1227.8 -740.349 0
-740.349 -7351.47 0
0 0 -1837.1

4815.61 985.193 0
985.193 3812.86 0
0 0 2588.54

-1246.94 1977.89 0
1977.89 -3125.82 0
0 0 -1311.83

2776.27 1262.04 0
1262.04 3278.81 0
0 0 1816.52

-3759.15 -572.816 0
-572.816 -2023.92 0
0 0 -1734.92

-234.077 2981.45 0
2981.45 -5439.89 0
0 0 -1702.19

-1878.89 2430.33 0
2430.33 -203.225 0
0 0 -624.636

6129.41 -4175.84 0
-4175.84 -458.861 0
0 0 1701.17

560.752 2326.38 0
2326.38 4676.51 0
0 0 1571.18

-1547.81 -2434.25 0
-2434.25 1710.77 0
0 0 48.8887

1949.55 -1433.96 0
-1433.96 -991.656 0
0 0 287.367

-4602.92 -1101.05 0
-1101.05 -10680.4 0
0 0 -4585

-5603.64 3844.07 0
3844.07 1923.39 0
0 0 -1104.08

11333.4 -3000.2 0
-3000.2 633.873 0
0 0 3590.19

6556.89 -951.83 0
-951.83 -3883.83 0
0 0 801.918

TENSORS velocity_gradient double
-1.75753 -10.2371 0
6.52918 1.58104 0
0 0 0

-1.61168 -11.7168 0
7.43211 1.83036 0
0 0 0

-1.93783 -11.0526 0
6.71597 2.95248 0
0 0 0

-1.56389 -11.5622 0
7.7867 2.97694 0
0 0 0

-0.884453 -11.7493 0
7.8277 1.57737 0
0 0 0

0.172243 -4.51891 0
6.04146 1.33476 0
0 0 0

-1.4996 -8.18092 0
8.46983 1.30811 0
0 0 0

-1.78188 -5.26574 0
7.65347 0.582216 0
0 0 0

-1.51886 -3.79919 0
6.33158 1.1563 0
0 0 0

-1.60798 -7.04431 0
6.87126 0.528322 0
0 0 0

-2.04353 -5.32975 0
6.62538 0.714948 0
0 0 0

-1.76254 -5.86769 0
5.52504 0.603334 0
0 0 0

-0.32476 -7.60786 0
7.34198 0.321596 0
0 0 0

0.297415 -3.20825 0
7.6143 -0.198854 0
0 0 0

-0.0490523 -6.25293 0
7.2739 0.795512 0
0 0 0

0.201716 -3.51037 0
7.62422 -0.16752 0
0 0 0

-5.86321 -9.29805 0
5.09148 2.14138 0
0 0 0

-3.15248 -10.0315 0
3.39591 2.60018 0
0 0 0

-5.02542 -6.5654 0
4.56744 0.432097 0
0 0 0

-2.1159 -7.02139 0
2.77749 0.85653 0
0 0 0

-0.882103 -5.2012 0
3.57278 -0.545194 0
0 0 0

-1.42368 -5.51392 0
6.7201 -0.429087 0
0 0 0

0.0988248 -3.16518 0
2.65433 -0.215993 0
0 0 0

2.06536 -3.89468 0
3.01791 -0.350864 0
0 0 0

-2.0353 -5.32625 0
6.23932 -1.14663 0
0 0 0

-1.67332 -5.45095 0
4.94675 -0.739749 0
0 0 0

3.14783 -4.9258 0
3.72586 -1.37132 0
0 0 0

2.64184 -5.0631 0
4.59078 -1.59576 0
0 0 0

-1.09915 -3.51352 0
3.89142 -0.0907937 0
0 0 0

0.376975 -3.01964 0
3.87303 -0.107474 0
0 0 0

-0.442876 -0.853084 0
3.86526 0.0329793 0
0 0 0

0.870936 -1.39637 0
3.90711 0.00452999 0
0 0 0

-1.07106 -4.00448 0
2.4123 -1.59937 0
0 0 0

1.05431 -2.16762 0
0.433582 -0.77916 0
0 0 0

-0.0880095 -1.61546 0
1.39941 -3.59172 0
0 0 0

1.3997 -0.457868 0
-0.119019 -1.95762 0
0 0 0

1.42775 -1.31774 0
0.13578 -0.140024 0
0 0 0

2.55799 -3.04693 0
2.05762 -0.0674143 0
0 0 0

1.90031 -0.696239 0
-1.43385 -1.33155 0
0 0 0

2.03271 -4.81307 0
-2.25969 0.122389 0
0 0 0

3.30137 -4.50906 0
4.09176 -0.378219 0
0 0 0

3.61628 -4.05381 0
4.87346 -0.735981 0
0 0 0

1.50269 -4.63969 0
-2.20136 0.10331 0
0 0 0

1.6814 -1.95019 0
-0.732896 -0.811122 0
0 0 0

3.31142 -0.923163 0
4.64887 -0.425228 0
0 0 0

2.77405 -0.711509 0
4.06284 -0.19441 0
0 0 0

2.82704 -1.45158 0
3.25941 -0.995288 0
0 0 0

1.94363 -0.679296 0
4.05724 -1.67741 0
0 0 0

1.81036 -1.00295 0
-2.18286 -0.463348 0
0 0 0

0.604879 -0.910806 0
1.25847 -1.30752 0
0 0 0

1.21607 -2.56453 0
-0.920918 3.32771 0
0 0 0

0.0828589 -2.67681 0
2.2336 1.99136 0
0 0 0

0.295586 -0.499309 0
1.67352 -2.03511 0
0 0 0

1.31611 -5.27282 0
-0.836418 0.16933 0
0 0 0

-1.11564 -3.27863 0
4.68098 0.371884 0
0 0 0

-0.469647 -4.60923 0
4.88907 0.0347138 0
0 0 0

1.28185 -5.18252 0
-2.17706 0.163044 0
0 0 0

1.46149 -0.969811 0
-1.70097 -0.335345 0
0 0 0

-0.111668 -4.0766 0
4.88239 0.477798 0
0 0 0

-2.31894 -1.32826 0
4.23431 0.501346 0
0 0 0

1.98523 -1.16412 0
-1.01109 -0.591292 0
0 0 0

1.83524 -3.75229 0
0.264214 -1.3334 0
0 0 0

2.04278 -2.38039 0
-0.618699 0.739243 0
0 0 0

1.5486 -4.45073 0
1.03916 0.554884 0
0 0 0

SCALARS active double 1
LOOKUP_TABLE default
1
1
1
1
1
1
1
1
1
1
1
1
1
1
1
1
1
1
1
1
1
1
1
1
1
1
1
1
1
1
1
1
1
1
1
1
1
1
1
1
1
1
1
1
1
1
1
1
1
1
1
1
1
1
1
1
1
1
1
1
1
1
1
1
SCALARS extent double 1
LOOKUP_TABLE default
0.0125
0.0125
0.0125
0.0125
0.0125
0.0125
0.0125
0.0125
0.0125
0.0125
0.0125
0.0125
0.0125
0.0125
0.0125
0.0125
0.0125
0.0125
0.0125
0.0125
0.0125
0.0125
0.0125
0.0125
0.0125
0.0125
0.0125
0.0125
0.0125
0.0125
0.0125
0.0125
0.0125
0.0125
0.0125
0.0125
0.0125
0.0125
0.0125
0.0125
0.0125
0.0125
0.0125
0.0125
0.0125
0.0125
0.0125
0.0125
0.0125
0.0125
0.0125
0.0125
0.0125
0.0125
0.0125
0.0125
0.0125
0.0125
0.0125
0.0125
0.0125
0.0125
0.0125
0.0125
SCALARS pressure double 1
LOOKUP_TABLE default
-160.155
3503.51
-3393.18
786.358
-849.162
-1355.56
-1345.54
521.227
2783.06
149.887
-875.022
2058.45
-1917.09
-1123.38
3399.55
2746.94
3375.83
-5.48485
-4674.87
-2748.99
527.538
3601.1
3253.6
-281.294
-856.467
-2077.04
-2290.64
3610.68
-1012.23
-1959.41
-1316.93
-1160.85
-911.564
-2202.77
-1426.7
-1680.24
-319.193
-7292.19
-518.924
2694.75
-3578.84
7982.55
-2025.84
1062.69
-378.608
5011.84
-5369.03
-796.366
496.419
2653.59
-3739.01
1894.86
-2623.87
2506
2458.72
902.252
-2457.24
-2269.48
-70.617
-415.085
6622.78
1594.78
-5185.83
-1158.33
SCALARS density double 1
LOOKUP_TABLE default
998.08
1042.94
960.1
1009.48
989.862
983.865
983.983
1006.27
1033.96
1001.8
989.555
1025.01
977.258
986.61
1041.64
1033.51
1041.34
999.934
945.446
967.55
1006.35
1044.16
1039.82
996.63
989.775
975.384
972.887
1044.28
987.927
976.761
984.321
986.166
989.121
973.913
983.025
980.039
996.177
916.213
993.792
1032.87
957.963
1100.53
975.983
1012.83
995.467
1061.99
937.603
990.489
1005.97
1032.36
956.124
1023
969.004
1030.53
1029.94
1010.89
970.944
973.134
999.153
995.031
1082.72
1019.32
939.667
986.196
