# vtk DataFile Version 3.0
Frame: 38, Time: 0.634
ASCII
DATASET UNSTRUCTURED_GRID
POINTS 64 double
0.446731 0.0357015 0 
0.419402 0.0367801 0 
0.447031 0.0575434 0 
0.420252 0.0588444 0 
0.392712 0.0369208 0 
0.365243 0.0368102 0 
0.395481 0.0575473 0 
0.367881 0.056708 0 
0.338992 0.0376997 0 
0.311938 0.0358231 0 
0.339431 0.0586532 0 
0.311333 0.0568225 0 
0.282865 0.0376692 0 
0.256693 0.037554 0 
0.281915 0.0587283 0 
0.255491 0.0581791 0 
0.443791 0.081725 0 
0.418401 0.0816032 0 
0.447246 0.104095 0 
0.420511 0.103413 0 
0.393611 0.0797715 0 
0.367137 0.0787141 0 
0.395 0.102854 0 
0.368742 0.101656 0 
0.33913 0.0788475 0 
0.312066 0.076684 0 
0.341406 0.100961 0 
0.313643 0.0997583 0 
0.284598 0.0801498 0 
0.256317 0.0826604 0 
0.286299 0.102609 0 
0.259855 0.104877 0 
0.447851 0.127947 0 
0.421318 0.125104 0 
0.446363 0.15144 0 
0.420143 0.149341 0 
0.395515 0.124496 0 
0.369314 0.124882 0 
0.395959 0.148624 0 
0.369931 0.149744 0 
0.343083 0.124283 0 
0.317066 0.122764 0 
0.342879 0.147812 0 
0.31864 0.147425 0 
0.289974 0.124296 0 
0.2635 0.126213 0 
0.292302 0.148931 0 
0.264881 0.149509 0 
0.446937 0.174261 0 
0.420499 0.172809 0 
0.443273 0.198239 0 
0.418408 0.198459 0 
0.396298 0.173959 0 
0.369872 0.172573 0 
0.393819 0.199528 0 
0.367947 0.197021 0 
0.34309 0.170775 0 
0.31841 0.172148 0 
0.342467 0.196978 0 
0.317629 0.19794 0 
0.293279 0.171907 0 
0.266122 0.171473 0 
0.292591 0.195467 0 
0.266882 0.195046 0 
CELLS 64 128
1 0
1 1
1 2
1 3
1 4
1 5
1 6
1 7
1 8
1 9
1 10
1 11
1 12
1 13
1 14
1 15
1 16
1 17
1 18
1 19
1 20
1 21
1 22
1 23
1 24
1 25
1 26
1 27
1 28
1 29
1 30
1 31
1 32
1 33
1 34
1 35
1 36
1 37
1 38
1 39
1 40
1 41
1 42
1 43
1 44
1 45
1 46
1 47
1 48
1 49
1 50
1 51
1 52
1 53
1 54
1 55
1 56
1 57
1 58
1 59
1 60
1 61
1 62
1 63
CELL_TYPES 64
1
1
1
1
1
1
1
1
1
1
1
1
1
1
1
1
1
1
1
1
1
1
1
1
1
1
1
1
1
1
1
1
1
1
1
1
1
1
1
1
1
1
1
1
1
1
1
1
1
1
1
1
1
1
1
1
1
1
1
1
1
1
1
1
POINT_DATA 64
VECTORS displacement double
0.0342308 -0.376798 0 
0.00690214 -0.40072 0 
0.0095315 -0.354957 0 
-0.0172477 -0.378656 0 
-0.0197883 -0.425579 0 
-0.0472575 -0.45069 0 
-0.0420186 -0.404953 0 
-0.0696187 -0.430792 0 
-0.0735085 -0.4748 0 
-0.100562 -0.501677 0 
-0.0980695 -0.453847 0 
-0.126167 -0.480677 0 
-0.129635 -0.524831 0 
-0.155807 -0.549946 0 
-0.155585 -0.503772 0 
-0.182009 -0.529321 0 
-0.0187088 -0.330775 0 
-0.0440992 -0.355897 0 
-0.040254 -0.308405 0 
-0.0669888 -0.334087 0 
-0.0688888 -0.382729 0 
-0.0953627 -0.408786 0 
-0.0925 -0.359646 0 
-0.118758 -0.385844 0 
-0.12337 -0.433653 0 
-0.150434 -0.460816 0 
-0.146094 -0.411539 0 
-0.173857 -0.437742 0 
-0.177902 -0.48235 0 
-0.206183 -0.50484 0 
-0.201201 -0.459891 0 
-0.227645 -0.482623 0 
-0.0646493 -0.284553 0 
-0.0911816 -0.312396 0 
-0.091137 -0.26106 0 
-0.117357 -0.288159 0 
-0.116985 -0.338004 0 
-0.143186 -0.362618 0 
-0.141541 -0.313876 0 
-0.167569 -0.337756 0 
-0.169417 -0.388217 0 
-0.195434 -0.414736 0 
-0.194621 -0.364688 0 
-0.21886 -0.390075 0 
-0.222526 -0.438204 0 
-0.249 -0.461287 0 
-0.245198 -0.413569 0 
-0.272619 -0.437991 0 
-0.115563 -0.238239 0 
-0.142001 -0.264691 0 
-0.144227 -0.214261 0 
-0.169092 -0.239041 0 
-0.166202 -0.288541 0 
-0.192628 -0.314927 0 
-0.193681 -0.262972 0 
-0.219553 -0.290479 0 
-0.21941 -0.341725 0 
-0.24409 -0.365352 0 
-0.245033 -0.315522 0 
-0.269871 -0.33956 0 
-0.269221 -0.390593 0 
-0.296378 -0.416027 0 
-0.294909 -0.367033 0 
-0.320618 -0.392454 0 
VECTORS velocity double
0.116675 0.203084 0 
-0.625992 0.207529 0 
-0.249095 0.246512 0 
-0.680898 0.0826956 0 
0.123898 -0.276399 0 
-1.39538 -0.399654 0 
0.201025 -0.563618 0 
-0.258432 -0.171087 0 
-0.346561 -0.750816 0 
-0.239017 -0.458938 0 
0.208228 -0.0592654 0 
-0.542466 -0.0819269 0 
-0.541764 -0.129662 0 
-0.424852 0.00396038 0 
-0.680346 -0.0460077 0 
-0.942361 -0.0140208 0 
-0.303104 0.427295 0 
-0.585119 0.101237 0 
-0.480105 0.58 0 
-0.658168 -0.178903 0 
0.091797 0.0517587 0 
-0.0179712 0.0132208 0 
-0.291931 0.315416 0 
-0.800938 0.131629 0 
-0.319477 -0.356248 0 
-0.822672 -0.626326 0 
-0.832151 -0.416403 0 
-0.837935 -0.35813 0 
-0.518363 -0.192904 0 
-0.68203 -0.25049 0 
-0.304824 0.553624 0 
-1.04275 0.0291286 0 
-0.334116 0.675089 0 
-0.482822 -0.0875903 0 
-0.656056 0.442172 0 
-0.525161 0.389709 0 
-0.180066 0.263164 0 
-0.406847 -0.015254 0 
-0.760746 0.121803 0 
-0.976301 -0.0857494 0 
-0.157424 -0.534385 0 
-0.268245 -0.605216 0 
-0.721079 -0.222295 0 
-1.15798 -0.49799 0 
-0.578977 -0.438171 0 
-1.00049 -0.549122 0 
-1.02722 -0.00807525 0 
-0.777717 -0.117212 0 
-0.665731 0.787174 0 
-0.673216 0.199373 0 
-1.03425 0.737762 0 
-1.18475 0.157176 0 
-0.633083 -0.219541 0 
-0.377626 -0.0818437 0 
-1.19205 0.345866 0 
-1.13006 -0.0922867 0 
-0.348286 -0.262489 0 
-0.646056 -0.862835 0 
-1.43145 -0.581994 0 
-1.36579 -0.415444 0 
-0.181823 -0.496915 0 
-1.08155 -0.758367 0 
-1.34301 -0.501582 0 
-1.2286 -0.687773 0 
SCALARS mass double 1
LOOKUP_TABLE default
0.625
0.625
0.625
0.625
0.625
0.625
0.625
0.625
0.625
0.625
0.625
0.625
0.625
0.625
0.625
0.625
0.625
0.625
0.625
0.625
0.625
0.625
0.625
0.625
0.625
0.625
0.625
0.625
0.625
0.625
0.625
0.625
0.625
0.625
0.625
0.625
0.625
0.625
0.625
0.625
0.625
0.625
0.625
0.625
0.625
0.625
0.625
0.625
0.625
0.625
0.625
0.625
0.625
0.625
0.625
0.625
0.625
0.625
0.625
0.625
0.625
0.625
0.625
0.625
SCALARS volume double 1
LOOKUP_TABLE default
0.00053006
0.000491096
0.000641365
0.000614762
0.000498524
0.000518697
0.00057772
0.000601901
0.00050141
0.000501052
0.000582799
0.000586804
0.000537755
0.000518576
0.000608198
0.000598171
0.000575154
0.00057396
0.000628671
0.000615999
0.000604027
0.000644439
0.000588453
0.000598487
0.00062051
0.000573256
0.000606376
0.000618265
0.000614326
0.000583423
0.000580226
0.000589335
0.000620388
0.000608981
0.000620389
0.000611163
0.000627951
0.000614718
0.000638159
0.000593349
0.000632027
0.000629395
0.000609163
0.000600885
0.00059154
0.000587245
0.000618436
0.000581468
0.000618219
0.000629937
0.000628967
0.000617737
0.00062033
0.000607371
0.000630839
0.000616452
0.000621512
0.000613473
0.000639189
0.000607031
0.000597976
0.000576236
0.000629961
0.000608429
VECTORS momentum double
0.0729216 0.126927 0 
-0.391245 0.129705 0 
-0.155685 0.15407 0 
-0.425561 0.0516848 0 
0.0774362 -0.172749 0 
-0.872114 -0.249784 0 
0.125641 -0.352261 0 
-0.16152 -0.10693 0 
-0.216601 -0.46926 0 
-0.149386 -0.286836 0 
0.130142 -0.0370409 0 
-0.339041 -0.0512043 0 
-0.338603 -0.081039 0 
-0.265533 0.00247524 0 
-0.425216 -0.0287548 0 
-0.588976 -0.00876297 0 
-0.18944 0.267059 0 
-0.3657 0.0632734 0 
-0.300066 0.3625 0 
-0.411355 -0.111815 0 
0.0573731 0.0323492 0 
-0.011232 0.00826299 0 
-0.182457 0.197135 0 
-0.500587 0.082268 0 
-0.199673 -0.222655 0 
-0.51417 -0.391454 0 
-0.520094 -0.260252 0 
-0.523709 -0.223831 0 
-0.323977 -0.120565 0 
-0.426268 -0.156556 0 
-0.190515 0.346015 0 
-0.65172 0.0182054 0 
-0.208823 0.421931 0 
-0.301763 -0.0547439 0 
-0.410035 0.276358 0 
-0.328226 0.243568 0 
-0.112541 0.164478 0 
-0.25428 -0.00953378 0 
-0.475466 0.0761272 0 
-0.610188 -0.0535933 0 
-0.0983901 -0.33399 0 
-0.167653 -0.37826 0 
-0.450674 -0.138934 0 
-0.723737 -0.311244 0 
-0.361861 -0.273857 0 
-0.625308 -0.343201 0 
-0.642012 -0.00504703 0 
-0.486073 -0.0732574 0 
-0.416082 0.491983 0 
-0.42076 0.124608 0 
-0.646409 0.461101 0 
-0.740469 0.0982348 0 
-0.395677 -0.137213 0 
-0.236016 -0.0511523 0 
-0.745031 0.216166 0 
-0.706287 -0.0576792 0 
-0.217679 -0.164055 0 
-0.403785 -0.539272 0 
-0.894657 -0.363746 0 
-0.853621 -0.259652 0 
-0.113639 -0.310572 0 
-0.675967 -0.47398 0 
-0.839382 -0.313489 0 
-0.767874 -0.429858 0 
VECTORS body_force double
0 -9.81 0 
0 -9.81 0 
0 -9.81 0 
0 -9.81 0 
0 -9.81 0 
0 -9.81 0 
0 -9.81 0 
0 -9.81 0 
0 -9.81 0 
0 -9.81 0 
0 -9.81 0 
0 -9.81 0 
0 -9.81 0 
0 -9.81 0 
0 -9.81 0 
0 -9.81 0 
0 -9.81 0 
0 -9.81 0 
0 -9.81 0 
0 -9.81 0 
0 -9.81 0 
0 -9.81 0 
0 -9.81 0 
0 -9.81 0 
0 -9.81 0 
0 -9.81 0 
0 -9.81 0 
0 -9.81 0 
0 -9.81 0 
0 -9.81 0 
0 -9.81 0 
0 -9.81 0 
0 -9.81 0 
0 -9.81 0 
0 -9.81 0 
0 -9.81 0 
0 -9.81 0 
0 -9.81 0 
0 -9.81 0 
0 -9.81 0 
0 -9.81 0 
0 -9.81 0 
0 -9.81 0 
0 -9.81 0 
0 -9.81 0 
0 -9.81 0 
0 -9.81 0 
0 -9.81 0 
0 -9.81 0 
0 -9.81 0 
0 -9.81 0 
0 -9.81 0 
0 -9.81 0 
0 -9.81 0 
0 -9.81 0 
0 -9.81 0 
0 -9.81 0 
0 -9.81 0 
0 -9.81 0 
0 -9.81 0 
0 -9.81 0 
0 -9.81 0 
0 -9.81 0 
0 -9.81 0 
TENSORS cauchy_stress double
4317.79 12662.7 0
12662.7 -36002.5 0
0 0 -9505.42

-12084.2 3915.4 0
3915.4 -34283.5 0
0 0 -13910.3

2636.83 -3611.8 0
-3611.8 2333.87 0
0 0 1491.21

609.009 1412.92 0
1412.92 -3785.4 0
0 0 -952.917

-8157.15 7638.48 0
7638.48 -35323.5 0
0 0 -13044.2

-2074.89 1004.91 0
1004.91 -33777.5 0
0 0 -10755.7

-2188.16 7576.12 0
7576.12 -12939.2 0
0 0 -4538.2

6533.99 -7082.76 0
-7082.76 -13776.1 0
0 0 -2172.65

-10552.2 -1024.01 0
-1024.01 -31818.3 0
0 0 -12711.2

-5108.38 -2235.59 0
-2235.59 -37399.8 0
0 0 -12752.5

5090.51 -353.968 0
-353.968 -18534.5 0
0 0 -4033.19

4113.98 -15.3831 0
-15.3831 -16241.2 0
0 0 -3638.15

253.648 -4128.67 0
-4128.67 -29166.8 0
0 0 -8673.95

-5319.42 -6902.19 0
-6902.19 -30577.7 0
0 0 -10769.1

6614.95 13.7112 0
13.7112 -11855.5 0
0 0 -1572.16

2619.2 4067.87 0
4067.87 -11056.8 0
0 0 -2531.27

-9767.21 442.899 0
442.899 -6216.37 0
0 0 -4795.08

-1045.21 -1042.75 0
-1042.75 -15337.9 0
0 0 -4914.95

2773.77 -196.061 0
-196.061 -1647.42 0
0 0 337.903

7320.35 -3516.63 0
-3516.63 -10110 0
0 0 -836.909

1390.46 6387.55 0
6387.55 -7954.35 0
0 0 -1969.17

6836.21 -5707.36 0
-5707.36 -946.021 0
0 0 1767.06

213.173 4389.99 0
4389.99 -11800.7 0
0 0 -3476.27

1852.99 -238.254 0
-238.254 -10189.1 0
0 0 -2500.82

7565.91 -5670.12 0
-5670.12 -8952.45 0
0 0 -415.962

-3059.49 2908.07 0
2908.07 -13559.5 0
0 0 -4985.71

3673.91 6294.64 0
6294.64 -9491.51 0
0 0 -1745.28

8858.13 3422.47 0
3422.47 -10941.6 0
0 0 -625.041

8266.55 -182.299 0
-182.299 -11579.2 0
0 0 -993.806

610.542 3919.58 0
3919.58 -13848.9 0
0 0 -3971.5

1266.45 1088.14 0
1088.14 -15561.6 0
0 0 -4288.54

2162.87 2264.76 0
2264.76 -13462.2 0
0 0 -3389.81

507.598 -2424.12 0
-2424.12 -1932.06 0
0 0 -427.34

2591.99 -2223.81 0
-2223.81 -7585.17 0
0 0 -1497.95

1023.09 -1714.91 0
-1714.91 -2447 0
0 0 -427.173

-1141.38 147.047 0
147.047 -3164 0
0 0 -1291.61

6395.62 78.8678 0
78.8678 -5489.77 0
0 0 271.755

-452.167 -5031.31 0
-5031.31 -2737.71 0
0 0 -956.964

3744.91 2387.72 0
2387.72 261.845 0
0 0 1202.03

447.312 4200.18 0
4200.18 -10441.4 0
0 0 -2998.24

8621.46 -2414.37 0
-2414.37 -6471.33 0
0 0 645.037

5748.82 -5675.9 0
-5675.9 -4401.09 0
0 0 404.317

2987.02 7485.84 0
7485.84 -7922.77 0
0 0 -1480.72

-3104.11 2507.56 0
2507.56 -4462.87 0
0 0 -2270.09

877.964 -1809.17 0
-1809.17 -11459.3 0
0 0 -3174.4

1665.81 2928.37 0
2928.37 -13648.4 0
0 0 -3594.77

6771.67 3181.59 0
3181.59 -8801.93 0
0 0 -609.079

-1367.23 -2083.91 0
-2083.91 -12516.4 0
0 0 -4165.1

1445.55 -1290.31 0
-1290.31 -3543.29 0
0 0 -629.322

3076.56 -690.207 0
-690.207 -1563.57 0
0 0 453.895

1114.8 -5.43901 0
-5.43901 101.88 0
0 0 365.003

-1221.53 281.286 0
281.286 -1026.3 0
0 0 -674.349

2220.66 604.066 0
604.066 -3662.95 0
0 0 -432.685

-710.183 -4538.71 0
-4538.71 -4792.21 0
0 0 -1650.72

1087.03 2396.18 0
2396.18 701.372 0
0 0 536.519

-1005.88 -1059.72 0
-1059.72 -1642.4 0
0 0 -794.483

2883.13 -57.8376 0
-57.8376 -3959.27 0
0 0 -322.842

-3435.79 -6004.17 0
-6004.17 -143.987 0
0 0 -1073.93

3108.56 3702.6 0
3702.6 1208.43 0
0 0 1295.1

-1176.74 -546.292 0
-546.292 -4433.29 0
0 0 -1683.01

377.239 -2167.94 0
-2167.94 -8877.3 0
0 0 -2550.02

-2918.93 -2494.08 0
-2494.08 -12702.9 0
0 0 -4686.55

1232.98 1162.29 0
1162.29 287.56 0
0 0 456.163

-1377.99 -1639.44 0
-1639.44 -3789.52 0
0 0 -1550.25

TENSORS velocity_gradient double
-1.83211 -5.87594 0
3.7561 4.71116 0
0 0 0

-0.495732 -5.2692 0
5.92261 0.651614 0
0 0 0

-2.71009 -3.07795 0
4.98965 1.33231 0
0 0 0

-0.80414 -2.87049 0
7.47071 2.65212 0
0 0 0

1.75279 -5.34052 0
2.62209 -3.00796 0
0 0 0

1.75095 -6.63841 0
2.61934 -4.94955 0
0 0 0

1.78655 -2.52311 0
4.48009 3.71522 0
0 0 0

2.28907 -2.21138 0
3.85795 2.56575 0
0 0 0

2.41649 -8.05347 0
-0.431561 -5.9244 0
0 0 0

2.29549 -9.77434 0
-0.409952 -5.61707 0
0 0 0

3.05378 -1.85739 0
-0.454931 1.60067 0
0 0 0

3.08101 -1.44307 0
-0.47843 1.24312 0
0 0 0

1.02971 -11.0125 0
-2.97098 -4.16411 0
0 0 0

1.02445 -11.7243 0
-2.9558 -2.11045 0
0 0 0

1.86928 -2.26493 0
-3.6831 0.613453 0
0 0 0

1.83017 -3.7735 0
-3.82308 -0.0620145 0
0 0 0

-1.28028 -3.19758 0
5.86713 1.1304 0
0 0 0

-1.13979 -2.84406 0
5.95538 2.77146 0
0 0 0

-1.96296 -2.78028 0
5.5633 2.49317 0
0 0 0

-1.23752 -3.41956 0
5.023 1.90778 0
0 0 0

1.98261 -2.49956 0
4.92558 3.73415 0
0 0 0

2.04348 -2.20361 0
4.86453 2.53393 0
0 0 0

1.35137 -3.69951 0
5.83405 1.44344 0
0 0 0

1.76175 -3.18804 0
5.90973 0.555148 0
0 0 0

2.75559 -1.85351 0
-0.197603 1.59733 0
0 0 0

2.78763 -1.4543 0
-0.22525 1.25282 0
0 0 0

2.50422 -2.80822 0
0.191614 -0.406292 0
0 0 0

2.50981 -2.53038 0
0.159031 -0.83094 0
0 0 0

3.08839 -2.10995 0
-3.09776 0.687867 0
0 0 0

3.22634 -3.71431 0
-3.03153 -0.0824407 0
0 0 0

3.99769 -2.97618 0
-2.44344 -2.70236 0
0 0 0

4.03333 -2.77315 0
-2.37327 -4.47048 0
0 0 0

-1.26326 -2.68591 0
6.45636 2.7945 0
0 0 0

-0.607619 -3.56365 0
5.78085 1.71711 0
0 0 0

-0.265123 -4.92874 0
7.11737 2.2922 0
0 0 0

0.120614 -5.00923 0
6.77751 1.4633 0
0 0 0

1.01655 -4.14349 0
6.71705 0.605758 0
0 0 0

1.36737 -3.73942 0
6.95275 -0.564049 0
0 0 0

0.814676 -5.30229 0
7.70414 0.563542 0
0 0 0

1.01402 -5.55435 0
8.02936 -0.45925 0
0 0 0

2.5807 -3.42501 0
1.09025 -1.71711 0
0 0 0

2.57251 -3.56698 0
1.02803 -2.79699 0
0 0 0

2.58348 -4.77772 0
2.05121 -1.56161 0
0 0 0

2.59141 -4.35503 0
2.03866 -2.50999 0
0 0 0

3.60104 -3.43423 0
-1.6704 -3.87036 0
0 0 0

3.55463 -2.78399 0
-1.60225 -4.82523 0
0 0 0

3.00192 -4.10992 0
-0.758146 -3.42267 0
0 0 0

2.9892 -3.54886 0
-0.73621 -4.45745 0
0 0 0

0.297871 -6.48802 0
7.87288 1.98164 0
0 0 0

0.465876 -6.89689 0
7.51558 1.19929 0
0 0 0

0.929947 -5.83039 0
8.15467 1.22025 0
0 0 0

0.943434 -6.7505 0
8.12356 1.01279 0
0 0 0

0.98383 -7.16885 0
8.5052 0.47259 0
0 0 0

1.15371 -7.43473 0
8.81067 -0.380361 0
0 0 0

1.48204 -7.77622 0
9.49151 0.867893 0
0 0 0

1.46035 -8.06882 0
9.56666 0.0122561 0
0 0 0

1.6087 -7.31644 0
2.90831 -1.25059 0
0 0 0

1.53862 -6.03065 0
2.88476 -2.0538 0
0 0 0

0.229394 -8.13191 0
3.45889 -0.425892 0
0 0 0

0.171454 -7.01977 0
3.42468 0.21076 0
0 0 0

2.47526 -4.9067 0
0.287376 -2.93016 0
0 0 0

2.5173 -4.33521 0
0.176761 -4.07316 0
0 0 0

1.87314 -5.21503 0
1.19625 -1.41742 0
0 0 0

1.90627 -4.13904 0
1.17922 -2.78038 0
0 0 0

SCALARS active double 1
LOOKUP_TABLE default
1
1
1
1
1
1
1
1
1
1
1
1
1
1
1
1
1
1
1
1
1
1
1
1
1
1
1
1
1
1
1
1
1
1
1
1
1
1
1
1
1
1
1
1
1
1
1
1
1
1
1
1
1
1
1
1
1
1
1
1
1
1
1
1
SCALARS extent double 1
LOOKUP_TABLE default
0.0125
0.0125
0.0125
0.0125
0.0125
0.0125
0.0125
0.0125
0.0125
0.0125
0.0125
0.0125
0.0125
0.0125
0.0125
0.0125
0.0125
0.0125
0.0125
0.0125
0.0125
0.0125
0.0125
0.0125
0.0125
0.0125
0.0125
0.0125
0.0125
0.0125
0.0125
0.0125
0.0125
0.0125
0.0125
0.0125
0.0125
0.0125
0.0125
0.0125
0.0125
0.0125
0.0125
0.0125
0.0125
0.0125
0.0125
0.0125
0.0125
0.0125
0.0125
0.0125
0.0125
0.0125
0.0125
0.0125
0.0125
0.0125
0.0125
0.0125
0.0125
0.0125
0.0125
0.0125
SCALARS pressure double 1
LOOKUP_TABLE default
13730.1
20092.7
-2153.97
1376.44
18841.6
15536
6555.18
3138.27
18360.6
18420.2
5825.72
5255.11
12529
15555.4
2270.9
3656.27
6926.22
7099.37
-488.082
1208.87
2844.35
-2552.41
5021.28
3612.29
600.835
7201.58
2520.96
902.837
1435.5
5736.61
6194.56
4896.39
617.268
2163.71
617.027
1865.66
-392.534
1382.28
-1736.26
4330.78
-931.721
-584.014
2138.82
3279.03
4585.25
5192.45
879.781
6016.25
909.021
-655.626
-527.227
974.06
624.99
2384.37
-774.972
1147.59
466.328
1551.24
-1870.69
2431.01
3683.36
6769.46
-658.902
2239.25
SCALARS density double 1
LOOKUP_TABLE default
1179.11
1272.66
974.484
1016.65
1253.7
1204.94
1081.84
1038.38
1246.48
1247.38
1072.41
1065.09
1162.24
1205.22
1027.63
1044.85
1086.67
1088.93
994.16
1014.61
1034.72
969.835
1062.11
1044.3
1007.24
1090.26
1030.71
1010.89
1017.38
1071.26
1077.17
1060.52
1007.43
1026.3
1007.43
1022.64
995.301
1016.73
979.38
1053.34
988.882
993.016
1026
1040.13
1056.56
1064.29
1010.61
1074.86
1010.97
992.163
993.693
1011.76
1007.53
1029.03
990.743
1013.87
1005.61
1018.79
977.802
1029.6
1045.19
1084.62
992.124
1027.24
