# vtk DataFile Version 3.0
Frame: 53, Time: 0.884
ASCII
DATASET UNSTRUCTURED_GRID
POINTS 64 double
0.438969 0.246487 0 
0.459683 0.230873 0 
0.422108 0.226496 0 
0.442552 0.209592 0 
0.478643 0.213918 0 
0.499184 0.197985 0 
0.461167 0.193651 0 
0.482306 0.178713 0 
0.520538 0.183576 0 
0.539846 0.166436 0 
0.503369 0.164206 0 
0.522512 0.14797 0 
0.561607 0.152924 0 
0.583172 0.139613 0 
0.545216 0.13368 0 
0.566129 0.118838 0 
0.405637 0.208152 0 
0.424505 0.190772 0 
0.388886 0.189135 0 
0.409161 0.171677 0 
0.444467 0.175253 0 
0.465293 0.161036 0 
0.429027 0.155597 0 
0.448577 0.142104 0 
0.486087 0.146242 0 
0.505924 0.130571 0 
0.469643 0.127399 0 
0.490799 0.112856 0 
0.528043 0.11514 0 
0.551216 0.100069 0 
0.512234 0.098101 0 
0.534877 0.0817776 0 
0.3726 0.169377 0 
0.391753 0.151529 0 
0.359387 0.148394 0 
0.376428 0.130805 0 
0.412256 0.137012 0 
0.432616 0.121717 0 
0.396662 0.116596 0 
0.415833 0.1024 0 
0.453618 0.107796 0 
0.475455 0.0944034 0 
0.436374 0.0894037 0 
0.457519 0.0777483 0 
0.497329 0.0800918 0 
0.520775 0.0643418 0 
0.480023 0.0642146 0 
0.505493 0.0506289 0 
0.345349 0.129957 0 
0.361598 0.110662 0 
0.325803 0.11536 0 
0.341163 0.0905765 0 
0.380593 0.0973696 0 
0.401248 0.0810388 0 
0.363141 0.0748927 0 
0.385338 0.0593377 0 
0.421575 0.0682986 0 
0.442395 0.0577583 0 
0.404608 0.0467309 0 
0.42816 0.0378473 0 
0.467218 0.0462076 0 
0.493515 0.036662 0 
0.455015 0.0307003 0 
0.482698 0.0245285 0 
CELLS 64 128
1 0
1 1
1 2
1 3
1 4
1 5
1 6
1 7
1 8
1 9
1 10
1 11
1 12
1 13
1 14
1 15
1 16
1 17
1 18
1 19
1 20
1 21
1 22
1 23
1 24
1 25
1 26
1 27
1 28
1 29
1 30
1 31
1 32
1 33
1 34
1 35
1 36
1 37
1 38
1 39
1 40
1 41
1 42
1 43
1 44
1 45
1 46
1 47
1 48
1 49
1 50
1 51
1 52
1 53
1 54
1 55
1 56
1 57
1 58
1 59
1 60
1 61
1 62
1 63
CELL_TYPES 64
1
1
1
1
1
1
1
1
1
1
1
1
1
1
1
1
1
1
1
1
1
1
1
1
1
1
1
1
1
1
1
1
1
1
1
1
1
1
1
1
1
1
1
1
1
1
1
1
1
1
1
1
1
1
1
1
1
1
1
1
1
1
1
1
POINT_DATA 64
VECTORS displacement double
-0.0735311 -0.366013 0 
-0.0528173 -0.406627 0 
-0.115392 -0.386004 0 
-0.0949478 -0.427908 0 
-0.033857 -0.448582 0 
-0.0133164 -0.489515 0 
-0.0763327 -0.468849 0 
-0.0551942 -0.508787 0 
0.00803753 -0.528924 0 
0.0273462 -0.571064 0 
-0.0341306 -0.548294 0 
-0.0149882 -0.58953 0 
0.0491067 -0.609576 0 
0.0706717 -0.647887 0 
0.00771556 -0.62882 0 
0.0286289 -0.668662 0 
-0.156863 -0.404348 0 
-0.137995 -0.446728 0 
-0.198614 -0.423365 0 
-0.178339 -0.465823 0 
-0.118033 -0.487247 0 
-0.0972072 -0.526464 0 
-0.158473 -0.506903 0 
-0.138923 -0.545396 0 
-0.076413 -0.566258 0 
-0.0565764 -0.606929 0 
-0.117857 -0.585101 0 
-0.0967013 -0.624644 0 
-0.0344573 -0.64736 0 
-0.0112838 -0.687431 0 
-0.075266 -0.664399 0 
-0.0526228 -0.705722 0 
-0.2399 -0.443123 0 
-0.220747 -0.485971 0 
-0.278113 -0.464106 0 
-0.261072 -0.506695 0 
-0.200244 -0.525488 0 
-0.179884 -0.565783 0 
-0.240838 -0.545904 0 
-0.221667 -0.5851 0 
-0.158882 -0.604704 0 
-0.137045 -0.643097 0 
-0.201126 -0.623096 0 
-0.179981 -0.659752 0 
-0.115171 -0.682408 0 
-0.091725 -0.723158 0 
-0.157477 -0.698285 0 
-0.132007 -0.736871 0 
-0.317151 -0.482543 0 
-0.300902 -0.526838 0 
-0.361697 -0.49714 0 
-0.346337 -0.546923 0 
-0.281907 -0.56513 0 
-0.261252 -0.606461 0 
-0.324359 -0.587607 0 
-0.302162 -0.628162 0 
-0.240925 -0.644201 0 
-0.220105 -0.679742 0 
-0.282892 -0.665769 0 
-0.25934 -0.699653 0 
-0.195282 -0.716292 0 
-0.168985 -0.750838 0 
-0.232485 -0.7318 0 
-0.204802 -0.762971 0 
VECTORS velocity double
0.0293386 -1.50978 0 
-0.297652 -1.59078 0 
-0.418493 -1.3789 0 
-0.219413 -1.4705 0 
-0.0972761 -1.42078 0 
-0.31483 -1.53203 0 
-0.595974 -1.29423 0 
-0.487 -1.33014 0 
-0.195472 -1.30493 0 
-0.162297 -1.2695 0 
-0.31565 -1.24657 0 
-0.547226 -1.31804 0 
-0.185499 -1.16984 0 
-0.130054 -1.59351 0 
0.0759519 -1.15917 0 
-0.524638 -1.41999 0 
-0.346747 -1.00271 0 
-0.521107 -1.58851 0 
-0.342452 -1.55136 0 
-0.658661 -1.15879 0 
-0.579755 -1.37427 0 
-0.320625 -1.43822 0 
-0.701307 -1.31089 0 
-0.856916 -1.17787 0 
-0.29776 -1.06792 0 
-0.385848 -0.988456 0 
-0.617943 -1.30245 0 
-0.346372 -0.967093 0 
-0.524448 -1.0868 0 
-0.323222 -1.304 0 
-0.343728 -0.894404 0 
-0.480714 -1.08709 0 
-0.672779 -1.06298 0 
-0.60086 -1.33509 0 
-1.03597 -0.956386 0 
-1.12953 -0.952388 0 
-0.484493 -1.5612 0 
-0.781019 -1.20888 0 
-1.24295 -1.46962 0 
-0.86218 -0.885457 0 
-0.479568 -1.12668 0 
-0.626844 -0.917961 0 
-0.681971 -1.35871 0 
-0.943761 -0.606896 0 
-0.319424 -1.08125 0 
-0.210415 -1.42442 0 
-0.338305 -0.444318 0 
-0.598558 -0.857081 0 
-0.612752 -1.6402 0 
-0.681961 -1.35802 0 
-0.733973 -1.40578 0 
-0.958788 -1.31587 0 
-0.925396 -1.23696 0 
-0.631524 -1.12376 0 
-0.393639 -1.13362 0 
-0.649644 -1.39413 0 
-0.527607 -1.24877 0 
-0.580177 -0.615655 0 
-1.07533 -1.40773 0 
-0.531998 -0.622182 0 
-0.125037 -0.232322 0 
-0.0885244 -0.403335 0 
-0.681477 -0.700012 0 
-0.587279 -0.2663 0 
SCALARS mass double 1
LOOKUP_TABLE default
0.625
0.625
0.625
0.625
0.625
0.625
0.625
0.625
0.625
0.625
0.625
0.625
0.625
0.625
0.625
0.625
0.625
0.625
0.625
0.625
0.625
0.625
0.625
0.625
0.625
0.625
0.625
0.625
0.625
0.625
0.625
0.625
0.625
0.625
0.625
0.625
0.625
0.625
0.625
0.625
0.625
0.625
0.625
0.625
0.625
0.625
0.625
0.625
0.625
0.625
0.625
0.625
0.625
0.625
0.625
0.625
0.625
0.625
0.625
0.625
0.625
0.625
0.625
0.625
SCALARS volume double 1
LOOKUP_TABLE default
0.000626717
0.000622537
0.000620521
0.000614752
0.000621845
0.000621927
0.000621802
0.000607136
0.000625851
0.000624419
0.00060885
0.000604052
0.000624496
0.000628661
0.000613944
0.000604998
0.000624053
0.000622509
0.000629828
0.000619264
0.000603094
0.000613974
0.000595798
0.000587893
0.000610268
0.000594129
0.000616671
0.000588812
0.000618602
0.000597018
0.000582027
0.000593333
0.000627967
0.000619402
0.000606858
0.000563889
0.000626215
0.000599179
0.000615404
0.000592506
0.000607127
0.000574472
0.000562058
0.000570133
0.000550551
0.000571279
0.000575485
0.000514401
0.000601002
0.000619393
0.000549734
0.000641346
0.000598304
0.000627352
0.000641751
0.000598853
0.00059275
0.000601459
0.000585322
0.000465931
0.000560075
0.000462464
0.000417339
0.00033789
VECTORS momentum double
0.0183366 -0.943611 0 
-0.186032 -0.994239 0 
-0.261558 -0.86181 0 
-0.137133 -0.919063 0 
-0.0607975 -0.887985 0 
-0.196769 -0.957519 0 
-0.372483 -0.808893 0 
-0.304375 -0.83134 0 
-0.12217 -0.815578 0 
-0.101435 -0.79344 0 
-0.197281 -0.779107 0 
-0.342016 -0.823776 0 
-0.115937 -0.731148 0 
-0.081284 -0.995941 0 
0.0474699 -0.72448 0 
-0.327899 -0.887492 0 
-0.216717 -0.626691 0 
-0.325692 -0.992821 0 
-0.214032 -0.969602 0 
-0.411663 -0.724245 0 
-0.362347 -0.858917 0 
-0.200391 -0.898886 0 
-0.438317 -0.819308 0 
-0.535573 -0.736166 0 
-0.1861 -0.667447 0 
-0.241155 -0.617785 0 
-0.386214 -0.81403 0 
-0.216482 -0.604433 0 
-0.32778 -0.679251 0 
-0.202014 -0.815 0 
-0.21483 -0.559003 0 
-0.300446 -0.679434 0 
-0.420487 -0.664362 0 
-0.375537 -0.83443 0 
-0.647482 -0.597741 0 
-0.705958 -0.595242 0 
-0.302808 -0.975749 0 
-0.488137 -0.75555 0 
-0.776846 -0.91851 0 
-0.538863 -0.553411 0 
-0.29973 -0.704178 0 
-0.391777 -0.573726 0 
-0.426232 -0.849193 0 
-0.589851 -0.37931 0 
-0.19964 -0.675784 0 
-0.131509 -0.89026 0 
-0.211441 -0.277699 0 
-0.374099 -0.535675 0 
-0.38297 -1.02512 0 
-0.426226 -0.848762 0 
-0.458733 -0.878614 0 
-0.599242 -0.822419 0 
-0.578373 -0.773102 0 
-0.394702 -0.702349 0 
-0.246025 -0.708509 0 
-0.406027 -0.871332 0 
-0.329754 -0.780484 0 
-0.36261 -0.384784 0 
-0.672082 -0.87983 0 
-0.332499 -0.388864 0 
-0.0781479 -0.145201 0 
-0.0553277 -0.252084 0 
-0.425923 -0.437508 0 
-0.367049 -0.166437 0 
VECTORS body_force double
0 -9.81 0 
0 -9.81 0 
0 -9.81 0 
0 -9.81 0 
0 -9.81 0 
0 -9.81 0 
0 -9.81 0 
0 -9.81 0 
0 -9.81 0 
0 -9.81 0 
0 -9.81 0 
0 -9.81 0 
0 -9.81 0 
0 -9.81 0 
0 -9.81 0 
0 -9.81 0 
0 -9.81 0 
0 -9.81 0 
0 -9.81 0 
0 -9.81 0 
0 -9.81 0 
0 -9.81 0 
0 -9.81 0 
0 -9.81 0 
0 -9.81 0 
0 -9.81 0 
0 -9.81 0 
0 -9.81 0 
0 -9.81 0 
0 -9.81 0 
0 -9.81 0 
0 -9.81 0 
0 -9.81 0 
0 -9.81 0 
0 -9.81 0 
0 -9.81 0 
0 -9.81 0 
0 -9.81 0 
0 -9.81 0 
0 -9.81 0 
0 -9.81 0 
0 -9.81 0 
0 -9.81 0 
0 -9.81 0 
0 -9.81 0 
0 -9.81 0 
0 -9.81 0 
0 -9.81 0 
0 -9.81 0 
0 -9.81 0 
0 -9.81 0 
0 -9.81 0 
0 -9.81 0 
0 -9.81 0 
0 -9.81 0 
0 -9.81 0 
0 -9.81 0 
0 -9.81 0 
0 -9.81 0 
0 -9.81 0 
0 -9.81 0 
0 -9.81 0 
0 -9.81 0 
0 -9.81 0 
TENSORS cauchy_stress double
1020.19 -240.565 0
-240.565 -492.576 0
0 0 158.284

451.092 -100.371 0
-100.371 -1210.45 0
0 0 -227.807

1041.81 -1042.05 0
-1042.05 -2425.03 0
0 0 -414.965

-1788.16 515.699 0
515.699 -1391.09 0
0 0 -953.776

588.468 12.8257 0
12.8257 -1561.82 0
0 0 -292.006

1256.36 100.262 0
100.262 -2204.24 0
0 0 -284.364

1857.42 573.045 0
573.045 -2843.95 0
0 0 -295.957

-446.812 -762.174 0
-762.174 -5129.74 0
0 0 -1672.97

2641.54 -125.105 0
-125.105 -2379.76 0
0 0 78.5348

1133.91 -1044.88 0
-1044.88 -1312.77 0
0 0 -53.6591

605.593 680.811 0
680.811 -5640.05 0
0 0 -1510.34

-1091.88 -1927.86 0
-1927.86 -5464.19 0
0 0 -1966.82

497.733 -1091.03 0
-1091.03 -652.827 0
0 0 -46.5283

798.34 -1866.33 0
-1866.33 324.828 0
0 0 336.95

520.828 416.271 0
416.271 -3953.2 0
0 0 -1029.71

-757.142 -1530.06 0
-1530.06 -5497.84 0
0 0 -1876.49

1658.58 828.434 0
828.434 -1950.07 0
0 0 -87.4481

2500.24 1812.63 0
1812.63 -3268.21 0
0 0 -230.389

3197.58 811.855 0
811.855 -1717.72 0
0 0 443.958

1109.87 736.88 0
736.88 -2882.82 0
0 0 -531.884

-2099.63 525.751 0
525.751 -4761.56 0
0 0 -2058.36

2918.27 1658.89 0
1658.89 -6341.11 0
0 0 -1026.85

-3068.72 -364.955 0
-364.955 -6133.17 0
0 0 -2760.57

127.079 2351.93 0
2351.93 -11897.5 0
0 0 -3531.12

1154.42 509.128 0
509.128 -5741.54 0
0 0 -1376.14

630.107 -3676.92 0
-3676.92 -10371.4 0
0 0 -2922.39

5752.91 656.36 0
656.36 -8332.84 0
0 0 -773.981

152.742 -1109.96 0
-1109.96 -11623 0
0 0 -3441.07

5237.87 -4571.81 0
-4571.81 -7216.68 0
0 0 -593.642

-2208.58 -3423.59 0
-3423.59 -6599.89 0
0 0 -2642.54

-1234.3 -3828.29 0
-3828.29 -12464.8 0
0 0 -4109.73

-1357.37 -6417.9 0
-6417.9 -8641.98 0
0 0 -2999.8

2981.32 -406.355 0
-406.355 -2070.53 0
0 0 273.237

-2275.66 1318.45 0
1318.45 545.509 0
0 0 -519.046

-2212.24 -1459.88 0
-1459.88 -3452.64 0
0 0 -1699.46

-14376 1991.02 0
1991.02 -5411.31 0
0 0 -5936.19

2295.45 -56.1664 0
-56.1664 -1921.99 0
0 0 112.039

-1959.28 563.913 0
563.913 -6154.49 0
0 0 -2434.13

12.0926 1214.18 0
1214.18 -2987.53 0
0 0 -892.631

-1343.47 8843.62 0
8843.62 -8923.93 0
0 0 -3080.22

4940.27 -502.931 0
-502.931 -10519.8 0
0 0 -1673.85

-4207.65 350.485 0
350.485 -12003.9 0
0 0 -4863.45

-5184.88 2981.58 0
2981.58 -15228 0
0 0 -6123.86

-2841.38 -98.5953 0
-98.5953 -14828.1 0
0 0 -5300.83

-6268.01 -6657.79 0
-6657.79 -18122.9 0
0 0 -7317.26

-2605.78 -10256.8 0
-10256.8 -14677.6 0
0 0 -5185

10285.3 125.159 0
125.159 -26158.2 0
0 0 -4761.87

-10376.8 -12779.7 0
-12779.7 -27075 0
0 0 -11235.5

-6686.32 -2082.5 0
-2082.5 -843.013 0
0 0 -2258.8

-2277.88 7102.42 0
7102.42 544.97 0
0 0 -519.873

-21304.9 -10898.6 0
-10898.6 -3371.31 0
0 0 -7402.86

2665.06 -4214.53 0
-4214.53 2299.84 0
0 0 1489.47

-5143.11 2661.73 0
2661.73 -3251.51 0
0 0 -2518.39

3514.31 643.178 0
643.178 -2792.04 0
0 0 216.679

6516.64 2295.75 0
2295.75 -1430.4 0
0 0 1525.87

-5104.54 581.362 0
581.362 -3113.91 0
0 0 -2465.54

-1090.13 7311.49 0
7311.49 -9098.06 0
0 0 -3056.46

1716.98 4104.29 0
4104.29 -9100.27 0
0 0 -2214.99

-2327.35 4770.62 0
4770.62 -10285.9 0
0 0 -3783.99

-16530.6 3166.32 0
3166.32 -39952.8 0
0 0 -16945

2593.5 -1090.15 0
-1090.15 -23686 0
0 0 -6327.76

-13536.8 -10256.2 0
-10256.2 -44382.9 0
0 0 -17375.9

-15316.2 -6486.3 0
-6486.3 -62348 0
0 0 -23299.2

-26155.6 -6992.87 0
-6992.87 -92119.7 0
0 0 -35482.6

TENSORS velocity_gradient double
1.12429 4.96542 0
-3.57162 -1.22664 0
0 0 0

0.108488 4.26861 0
0.883653 -1.80872 0
0 0 0

1.2936 4.90386 0
-3.08928 -0.843962 0
0 0 0

1.31495 4.87792 0
-2.45522 -1.61454 0
0 0 0

1.13525 3.12039 0
0.760843 -1.67139 0
0 0 0

1.73979 1.54646 0
1.33567 -2.5115 0
0 0 0

2.25942 3.14821 0
0.719407 -2.97564 0
0 0 0

2.90487 2.13823 0
0.880494 -3.35524 0
0 0 0

2.11019 0.843652 0
1.28302 -2.22339 0
0 0 0

2.57517 0.322078 0
0.184481 -0.991131 0
0 0 0

2.81446 1.32575 0
0.245594 -3.22163 0
0 0 0

2.81749 1.10094 0
-1.0146 -2.52985 0
0 0 0

1.0026 0.994943 0
-3.23589 1.27455 0
0 0 0

0.522286 3.5638 0
-4.36529 0.00803572 0
0 0 0

2.07627 2.37223 0
-2.33927 -1.34583 0
0 0 0

-0.0826159 3.0717 0
-4.99734 -0.506147 0
0 0 0

1.28005 4.92475 0
-2.42777 -0.216095 0
0 0 0

1.55039 4.22281 0
-1.58115 -1.51627 0
0 0 0

-0.452904 5.67594 0
-2.59984 0.103048 0
0 0 0

2.08833 4.65109 0
-0.46334 -0.626332 0
0 0 0

2.0913 3.65212 0
-0.51751 -2.65542 0
0 0 0

3.65339 2.85272 0
1.08506 -3.15997 0
0 0 0

2.54104 4.09181 0
0.47735 -1.78848 0
0 0 0

3.44249 1.50827 0
1.22284 -3.66555 0
0 0 0

4.20855 1.03053 0
1.26336 -3.99944 0
0 0 0

2.20973 0.578021 0
-2.19925 -3.99626 0
0 0 0

4.72387 1.05229 0
1.50714 -4.03827 0
0 0 0

5.09928 0.512086 0
1.69813 -4.31311 0
0 0 0

1.49804 1.59778 0
-3.25498 -2.48353 0
0 0 0

-0.0769815 1.88201 0
-5.33496 -0.349525 0
0 0 0

0.795952 0.330411 0
-4.61848 -3.90952 0
0 0 0

0.387604 0.397027 0
-6.45057 -1.41894 0
0 0 0

0.949974 6.8212 0
-2.30203 0.346175 0
0 0 0

1.96532 4.2731 0
-1.95091 -0.301 0
0 0 0

1.96202 2.99524 0
-1.82526 0.681964 0
0 0 0

1.10356 0.0237089 0
-0.85129 -0.277218 0
0 0 0

2.76208 1.65574 0
1.3602 -2.25753 0
0 0 0

2.79781 1.60848 0
1.99005 -3.09058 0
0 0 0

0.87625 1.3603 0
0.685876 -1.52164 0
0 0 0

2.89468 0.902279 0
2.93684 -2.62627 0
0 0 0

4.84414 1.43734 0
1.89174 -3.80256 0
0 0 0

5.12266 -1.37902 0
1.54635 -6.73635 0
0 0 0

3.24471 -2.68616 0
4.42592 -6.64785 0
0 0 0

4.22638 -2.75451 0
0.609677 -8.19705 0
0 0 0

3.0809 -0.545271 0
-1.62182 -5.7162 0
0 0 0

0.0189883 0.101517 0
-8.58838 -3.13278 0
0 0 0

3.44126 -1.46586 0
-0.201154 -6.86622 0
0 0 0

-0.11711 -3.12541 0
-9.20502 -8.96935 0
0 0 0

-1.04906 -1.43266 0
4.22167 1.14497 0
0 0 0

-0.365627 -1.05833 0
0.429371 0.665973 0
0 0 0

-0.281164 0.0837112 0
4.75103 0.378822 0
0 0 0

2.00066 -1.21924 0
4.79865 0.361402 0
0 0 0

-1.12502 -0.780511 0
1.06215 -0.634457 0
0 0 0

1.84837 -1.36589 0
4.23096 -1.46926 0
0 0 0

-1.65514 -1.79431 0
1.37122 -0.558337 0
0 0 0

-1.92975 -1.40323 0
1.49147 -0.729584 0
0 0 0

4.11608 -2.07606 0
7.73962 -4.32771 0
0 0 0

4.56071 -2.92978 0
9.43044 -7.57426 0
0 0 0

3.92073 -10.3076 0
8.90799 -15.7657 0
0 0 0

3.78484 -12.2843 0
8.29693 -17.4473 0
0 0 0

2.42344 -7.53939 0
-0.898134 -11.8553 0
0 0 0

1.90671 -7.92737 0
-0.845572 -13.8076 0
0 0 0

1.71165 -9.93183 0
-0.132935 -13.071 0
0 0 0

1.28223 -8.48779 0
-0.543246 -13.5638 0
0 0 0

SCALARS active double 1
LOOKUP_TABLE default
1
1
1
1
1
1
1
1
1
1
1
1
1
1
1
1
1
1
1
1
1
1
1
1
1
1
1
1
1
1
1
1
1
1
1
1
1
1
1
1
1
1
1
1
1
1
1
1
1
1
1
1
1
1
1
1
1
1
1
1
1
1
1
1
SCALARS extent double 1
LOOKUP_TABLE default
0.0125
0.0125
0.0125
0.0125
0.0125
0.0125
0.0125
0.0125
0.0125
0.0125
0.0125
0.0125
0.0125
0.0125
0.0125
0.0125
0.0125
0.0125
0.0125
0.0125
0.0125
0.0125
0.0125
0.0125
0.0125
0.0125
0.0125
0.0125
0.0125
0.0125
0.0125
0.0125
0.0125
0.0125
0.0125
0.0125
0.0125
0.0125
0.0125
0.0125
0.0125
0.0125
0.0125
0.0125
0.0125
0.0125
0.0125
0.0125
0.0125
0.0125
0.0125
0.0125
0.0125
0.0125
0.0125
0.0125
0.0125
0.0125
0.0125
0.0125
0.0125
0.0125
0.0125
0.0125
SCALARS pressure double 1
LOOKUP_TABLE default
-228.632
329.055
599.394
1377.68
421.787
410.748
427.494
2416.51
-113.439
77.5075
2181.6
2840.96
67.2075
-486.706
1487.36
2710.49
126.314
332.784
-641.273
768.276
2973.18
1483.23
3987.48
5100.51
1987.75
4221.23
1117.97
4970.43
857.482
3817
5936.28
4333.05
-394.676
749.734
2454.78
8574.5
-161.834
3515.97
1289.36
4449.21
2417.79
7024.98
8845.58
7656.76
10569.4
7489.45
6878.25
16229.1
3262.71
750.928
10693
-2151.46
3637.67
-312.981
-2204.03
3561.33
4414.88
3199.42
5465.76
24476.2
9140.1
25098.5
33654.5
51252.6
SCALARS density double 1
LOOKUP_TABLE default
997.26
1003.96
1007.22
1016.67
1005.07
1004.94
1005.14
1029.42
998.64
1000.93
1026.52
1034.68
1000.81
994.177
1018.01
1033.06
1001.52
1004
992.334
1009.26
1036.32
1017.96
1049.01
1063.12
1024.14
1051.96
1013.51
1061.46
1010.34
1046.87
1073.83
1053.37
995.275
1009.04
1029.9
1108.37
998.06
1043.09
1015.59
1054.84
1029.44
1087.95
1111.99
1096.23
1135.23
1094.04
1086.04
1215.01
1039.93
1009.05
1136.91
974.513
1044.62
996.251
973.898
1043.66
1054.41
1039.14
1067.79
1341.4
1115.92
1351.46
1497.58
1849.72
