# vtk DataFile Version 3.0
Frame: 8, Time: 0.136
ASCII
DATASET UNSTRUCTURED_GRID
POINTS 64 double
0.643244 0.244802 0 
0.627522 0.26361 0 
0.663826 0.261122 0 
0.647213 0.278963 0 
0.610526 0.283748 0 
0.592853 0.30125 0 
0.629588 0.300108 0 
0.611521 0.31822 0 
0.575281 0.320696 0 
0.559704 0.341923 0 
0.594402 0.33723 0 
0.579414 0.357788 0 
0.542823 0.360908 0 
0.527474 0.380684 0 
0.561854 0.377185 0 
0.546539 0.397246 0 
0.682611 0.277164 0 
0.664301 0.29554 0 
0.70031 0.291906 0 
0.683026 0.311458 0 
0.647938 0.31556 0 
0.630212 0.333839 0 
0.667188 0.331269 0 
0.650218 0.350035 0 
0.613476 0.353953 0 
0.598163 0.373631 0 
0.633907 0.369711 0 
0.617575 0.389535 0 
0.581073 0.392596 0 
0.566169 0.412711 0 
0.601025 0.4088 0 
0.586096 0.428665 0 
0.719877 0.307282 0 
0.702953 0.327027 0 
0.739022 0.321325 0 
0.722953 0.340686 0 
0.686587 0.346658 0 
0.669881 0.366043 0 
0.706463 0.36056 0 
0.689336 0.380595 0 
0.653385 0.385332 0 
0.637084 0.404351 0 
0.672646 0.399886 0 
0.656967 0.41945 0 
0.621189 0.423999 0 
0.605356 0.444203 0 
0.641192 0.439028 0 
0.625334 0.45888 0 
0.758012 0.335699 0 
0.742269 0.355361 0 
0.777547 0.350972 0 
0.761407 0.371014 0 
0.726404 0.375163 0 
0.709823 0.395002 0 
0.745375 0.391144 0 
0.729228 0.410727 0 
0.693182 0.414768 0 
0.677222 0.434891 0 
0.712811 0.430402 0 
0.69715 0.45017 0 
0.660968 0.454502 0 
0.64528 0.474258 0 
0.680559 0.469888 0 
0.665369 0.489607 0 
CELLS 64 128
1 0
1 1
1 2
1 3
1 4
1 5
1 6
1 7
1 8
1 9
1 10
1 11
1 12
1 13
1 14
1 15
1 16
1 17
1 18
1 19
1 20
1 21
1 22
1 23
1 24
1 25
1 26
1 27
1 28
1 29
1 30
1 31
1 32
1 33
1 34
1 35
1 36
1 37
1 38
1 39
1 40
1 41
1 42
1 43
1 44
1 45
1 46
1 47
1 48
1 49
1 50
1 51
1 52
1 53
1 54
1 55
1 56
1 57
1 58
1 59
1 60
1 61
1 62
1 63
CELL_TYPES 64
1
1
1
1
1
1
1
1
1
1
1
1
1
1
1
1
1
1
1
1
1
1
1
1
1
1
1
1
1
1
1
1
1
1
1
1
1
1
1
1
1
1
1
1
1
1
1
1
1
1
1
1
1
1
1
1
1
1
1
1
1
1
1
1
POINT_DATA 64
VECTORS displacement double
0.0307441 -0.0676977 0 
0.0150222 -0.0738903 0 
0.0263263 -0.051378 0 
0.00971317 -0.058537 0 
-0.00197415 -0.078752 0 
-0.0196467 -0.0862502 0 
-0.00791243 -0.062392 0 
-0.0259794 -0.0692802 0 
-0.037219 -0.0918036 0 
-0.0527961 -0.0955774 0 
-0.0430985 -0.0752705 0 
-0.0580865 -0.0797119 0 
-0.0696773 -0.101592 0 
-0.0850258 -0.106816 0 
-0.0756463 -0.0853146 0 
-0.0909613 -0.0902542 0 
0.0201112 -0.0353365 0 
0.00180087 -0.0419604 0 
0.0128102 -0.0205941 0 
-0.0044744 -0.026042 0 
-0.0145622 -0.0469402 0 
-0.0322882 -0.0536606 0 
-0.0203118 -0.0312312 0 
-0.0372815 -0.0374646 0 
-0.0490242 -0.0585471 0 
-0.0643369 -0.0638687 0 
-0.0535925 -0.0427893 0 
-0.0699254 -0.0479649 0 
-0.0814267 -0.069904 0 
-0.0963314 -0.0747893 0 
-0.0864754 -0.0537004 0 
-0.101404 -0.0588355 0 
0.00737711 -0.00521751 0 
-0.0095471 -0.0104732 0 
0.00152211 0.00882512 0 
-0.0145467 0.00318571 0 
-0.0259131 -0.0158425 0 
-0.0426192 -0.0214566 0 
-0.0310372 -0.00194039 0 
-0.0481641 -0.00690475 0 
-0.0591154 -0.0271676 0 
-0.0754164 -0.0331489 0 
-0.0648543 -0.0126141 0 
-0.0805333 -0.01805 0 
-0.091311 -0.038501 0 
-0.107144 -0.0432966 0 
-0.0963084 -0.0234722 0 
-0.112166 -0.0286196 0 
-0.00448806 0.0231988 0 
-0.0202314 0.0178608 0 
-0.00995285 0.0384721 0 
-0.0260933 0.0335141 0 
-0.0360956 0.0126631 0 
-0.0526771 0.00750234 0 
-0.0421252 0.0286438 0 
-0.0582722 0.023227 0 
-0.0693182 0.00226759 0 
-0.0852776 -0.00260895 0 
-0.0746889 0.0179015 0 
-0.0903504 0.0126699 0 
-0.101532 -0.00799769 0 
-0.11722 -0.0132418 0 
-0.106941 0.00738753 0 
-0.122131 0.00210695 0 
VECTORS velocity double
2.03783 -0.479852 0 
2.11255 -1.44984 0 
1.84569 0.887511 0 
2.06067 -0.378595 0 
1.87293 -1.3852 0 
2.14622 -1.86085 0 
1.65996 -0.12106 0 
1.29904 -0.661793 0 
1.92907 -1.67213 0 
1.17419 -1.46182 0 
0.94915 -0.993742 0 
0.62157 -0.895852 0 
1.30153 -1.9755 0 
0.807687 -1.85009 0 
0.777834 -0.976132 0 
0.30614 -1.30763 0 
1.57748 0.187473 0 
1.00538 -0.134033 0 
2.17937 -0.0934515 0 
1.40511 0.0640458 0 
1.22411 -0.106764 0 
1.12309 -0.553942 0 
1.28823 -0.110718 0 
0.959189 -0.397232 0 
0.688927 -1.04405 0 
0.414762 -1.05941 0 
0.615451 -0.558155 0 
0.519615 -0.621823 0 
0.808533 -1.05768 0 
0.384119 -1.42041 0 
0.924012 -0.769224 0 
0.117129 -1.26673 0 
1.99126 0.18242 0 
1.46306 0.0816061 0 
1.63204 0.277332 0 
1.26283 -0.249302 0 
1.51117 0.141391 0 
1.07718 -0.134883 0 
1.33234 -0.090865 0 
1.08143 -0.135056 0 
0.606359 -0.439065 0 
0.591307 -0.447903 0 
0.60944 -0.588769 0 
0.384335 -0.475928 0 
0.835292 -0.436749 0 
-0.0431956 -0.742381 0 
0.383478 -0.363181 0 
0.0895442 -0.524122 0 
1.79884 0.439152 0 
1.12668 -0.320804 0 
1.85657 1.1053 0 
1.0843 0.671851 0 
1.11257 -0.428169 0 
1.17167 -0.0858778 0 
1.01689 0.271257 0 
0.892166 0.312165 0 
0.733549 -0.380681 0 
0.333559 -0.459573 0 
0.478941 -0.0885363 0 
0.294632 -0.321144 0 
0.310779 -0.476522 0 
0.269844 -0.821809 0 
0.120458 -0.0261084 0 
-0.0788825 -0.335497 0 
SCALARS mass double 1
LOOKUP_TABLE default
0.625
0.625
0.625
0.625
0.625
0.625
0.625
0.625
0.625
0.625
0.625
0.625
0.625
0.625
0.625
0.625
0.625
0.625
0.625
0.625
0.625
0.625
0.625
0.625
0.625
0.625
0.625
0.625
0.625
0.625
0.625
0.625
0.625
0.625
0.625
0.625
0.625
0.625
0.625
0.625
0.625
0.625
0.625
0.625
0.625
0.625
0.625
0.625
0.625
0.625
0.625
0.625
0.625
0.625
0.625
0.625
0.625
0.625
0.625
0.625
0.625
0.625
0.625
0.625
SCALARS volume double 1
LOOKUP_TABLE default
0.000621068
0.000635649
0.000621794
0.00062191
0.000629096
0.000637623
0.000629539
0.000637349
0.000630931
0.000637208
0.000636193
0.000641045
0.000620195
0.000643341
0.000634141
0.00062734
0.000562248
0.000652805
0.000658873
0.000645857
0.000591637
0.000621802
0.000630373
0.000680122
0.000640533
0.000643839
0.000646684
0.000623728
0.00062153
0.000629201
0.000633914
0.000621339
0.000639798
0.000643442
0.000598694
0.000595806
0.000605087
0.000613897
0.000634476
0.000642164
0.000596105
0.000625246
0.00063244
0.000632849
0.000641275
0.000622586
0.000632176
0.00063399
0.000607059
0.000614987
0.000651235
0.000633183
0.000632856
0.000642266
0.000635106
0.000616136
0.000650817
0.000633725
0.000644505
0.00064151
0.000623419
0.000628701
0.000630657
0.000618826
VECTORS momentum double
1.27364 -0.299907 0 
1.32035 -0.906152 0 
1.15355 0.554695 0 
1.28792 -0.236622 0 
1.17058 -0.865752 0 
1.34139 -1.16303 0 
1.03747 -0.0756625 0 
0.8119 -0.413621 0 
1.20567 -1.04508 0 
0.733871 -0.91364 0 
0.593219 -0.621089 0 
0.388481 -0.559908 0 
0.813457 -1.23469 0 
0.504804 -1.15631 0 
0.486146 -0.610082 0 
0.191337 -0.817266 0 
0.985925 0.117171 0 
0.62836 -0.0837705 0 
1.36211 -0.0584072 0 
0.878191 0.0400287 0 
0.76507 -0.0667276 0 
0.701933 -0.346214 0 
0.805142 -0.0691987 0 
0.599493 -0.24827 0 
0.430579 -0.652531 0 
0.259226 -0.662131 0 
0.384657 -0.348847 0 
0.324759 -0.388639 0 
0.505333 -0.661052 0 
0.240074 -0.887756 0 
0.577507 -0.480765 0 
0.0732055 -0.791704 0 
1.24454 0.114013 0 
0.914415 0.0510038 0 
1.02002 0.173333 0 
0.789268 -0.155813 0 
0.94448 0.0883692 0 
0.673238 -0.0843021 0 
0.832715 -0.0567906 0 
0.675891 -0.0844101 0 
0.378974 -0.274416 0 
0.369567 -0.27994 0 
0.3809 -0.36798 0 
0.240209 -0.297455 0 
0.522057 -0.272968 0 
-0.0269972 -0.463988 0 
0.239674 -0.226988 0 
0.0559651 -0.327576 0 
1.12427 0.27447 0 
0.704175 -0.200502 0 
1.16036 0.690814 0 
0.677686 0.419907 0 
0.695354 -0.267605 0 
0.732294 -0.0536736 0 
0.635554 0.169536 0 
0.557604 0.195103 0 
0.458468 -0.237926 0 
0.208475 -0.287233 0 
0.299338 -0.0553352 0 
0.184145 -0.200715 0 
0.194237 -0.297826 0 
0.168653 -0.51363 0 
0.0752862 -0.0163178 0 
-0.0493016 -0.209686 0 
VECTORS body_force double
0 -9.81 0 
0 -9.81 0 
0 -9.81 0 
0 -9.81 0 
0 -9.81 0 
0 -9.81 0 
0 -9.81 0 
0 -9.81 0 
0 -9.81 0 
0 -9.81 0 
0 -9.81 0 
0 -9.81 0 
0 -9.81 0 
0 -9.81 0 
0 -9.81 0 
0 -9.81 0 
0 -9.81 0 
0 -9.81 0 
0 -9.81 0 
0 -9.81 0 
0 -9.81 0 
0 -9.81 0 
0 -9.81 0 
0 -9.81 0 
0 -9.81 0 
0 -9.81 0 
0 -9.81 0 
0 -9.81 0 
0 -9.81 0 
0 -9.81 0 
0 -9.81 0 
0 -9.81 0 
0 -9.81 0 
0 -9.81 0 
0 -9.81 0 
0 -9.81 0 
0 -9.81 0 
0 -9.81 0 
0 -9.81 0 
0 -9.81 0 
0 -9.81 0 
0 -9.81 0 
0 -9.81 0 
0 -9.81 0 
0 -9.81 0 
0 -9.81 0 
0 -9.81 0 
0 -9.81 0 
0 -9.81 0 
0 -9.81 0 
0 -9.81 0 
0 -9.81 0 
0 -9.81 0 
0 -9.81 0 
0 -9.81 0 
0 -9.81 0 
0 -9.81 0 
0 -9.81 0 
0 -9.81 0 
0 -9.81 0 
0 -9.81 0 
0 -9.81 0 
0 -9.81 0 
0 -9.81 0 
TENSORS cauchy_stress double
-1607.49 2209.79 0
2209.79 393.955 0
0 0 0

5299.29 -461.247 0
-461.247 -2050.36 0
0 0 0

-2119.45 4679.26 0
4679.26 1130.32 0
0 0 0

-1171.08 -2937.17 0
-2937.17 217.903 0
0 0 0

2940.27 -1055.14 0
-1055.14 -1684.22 0
0 0 0

3588.85 -2829.32 0
-2829.32 256.365 0
0 0 0

-2541.76 -100.845 0
-100.845 3933.37 0
0 0 0

1353.98 423.818 0
423.818 2408.78 0
0 0 0

211.575 -98.9036 0
-98.9036 1604.85 0
0 0 0

1426.74 -600.206 0
-600.206 2293.46 0
0 0 0

-1458.9 -121.13 0
-121.13 4872.54 0
0 0 0

1660.94 -1482.02 0
-1482.02 3213.61 0
0 0 0

1780.38 -652.669 0
-652.669 -3264.49 0
0 0 0

1049.06 872.752 0
872.752 4513.15 0
0 0 0

908.404 -776.816 0
-776.816 1883.82 0
0 0 0

-2392.8 257.47 0
257.47 3111.38 0
0 0 0

-7619.13 -4920.96 0
-4920.96 -12728.5 0
0 0 0

3099.64 -5221.93 0
-5221.93 5270.98 0
0 0 0

6996.08 -2786.62 0
-2786.62 3153.87 0
0 0 0

2589.15 -419.853 0
-419.853 3723.72 0
0 0 0

-5476.85 -944.118 0
-944.118 -5072.79 0
0 0 0

2621.54 -3998.8 0
-3998.8 -3607.94 0
0 0 0

2598.43 773.48 0
773.48 -952.324 0
0 0 0

8751.28 1702.58 0
1702.58 7502.7 0
0 0 0

1802.93 1567.11 0
1567.11 2918.16 0
0 0 0

3047.68 -966.761 0
-966.761 2663.41 0
0 0 0

1763.87 1564 0
1564 4795.05 0
0 0 0

2190.6 -2940.11 0
-2940.11 -2582.29 0
0 0 0

-496.186 -28.5701 0
-28.5701 -574.414 0
0 0 0

2038.74 -233.864 0
-233.864 -750.455 0
0 0 0

145.833 1764.61 0
1764.61 2577.41 0
0 0 0

27.8262 83.8826 0
83.8826 -1157.46 0
0 0 0

2717.17 -3618.92 0
-3618.92 1783.07 0
0 0 0

5659.63 -1985.59 0
-1985.59 -67.2119 0
0 0 0

-5140.17 -2479.39 0
-2479.39 -3129.27 0
0 0 0

-465.733 -3403.3 0
-3403.3 -8733.6 0
0 0 0

-2189.2 -1336.08 0
-1336.08 -4037.65 0
0 0 0

-519.291 -2696.17 0
-2696.17 -2927.75 0
0 0 0

4396.84 -3589.3 0
-3589.3 -1503.1 0
0 0 0

6711.36 -2963.9 0
-2963.9 -1501.37 0
0 0 0

-4148.3 -1252.28 0
-1252.28 -4954.39 0
0 0 0

2110.32 -470.872 0
-470.872 -2034.54 0
0 0 0

2440.07 615.02 0
615.02 -164.249 0
0 0 0

2432 83.2444 0
83.2444 -31.9957 0
0 0 0

2004.93 406.533 0
406.533 2938.55 0
0 0 0

1237.92 -2790.91 0
-2790.91 -1982.1 0
0 0 0

2326.77 -921.416 0
-921.416 -131.497 0
0 0 0

1913.57 -138.466 0
-138.466 833.016 0
0 0 0

-5695.62 -1037.79 0
-1037.79 94.3772 0
0 0 0

-1951.85 -1088.1 0
-1088.1 -1154.06 0
0 0 0

5055.68 1041.55 0
1041.55 2851.86 0
0 0 0

2411.84 -807.944 0
-807.944 89.8132 0
0 0 0

-1175.04 -207.521 0
-207.521 3577.31 0
0 0 0

3768.68 -1564.11 0
-1564.11 1471.87 0
0 0 0

1349.86 -1964.78 0
-1964.78 1734.84 0
0 0 0

793.012 51.1484 0
51.1484 -3539.94 0
0 0 0

5654.99 -2295.21 0
-2295.21 2129.08 0
0 0 0

1829.34 -706.531 0
-706.531 836.562 0
0 0 0

3747.64 -136.255 0
-136.255 2162.24 0
0 0 0

1432.2 163.775 0
163.775 3581.88 0
0 0 0

868.381 -1124.35 0
-1124.35 -1355.37 0
0 0 0

-541.623 -121.6 0
-121.6 1676.97 0
0 0 0

2689.79 -892.418 0
-892.418 -957.07 0
0 0 0

-1266.72 1588.33 0
1588.33 -642.501 0
0 0 0

TENSORS velocity_gradient double
-3.10838 -9.74149 0
17.4595 0.490788 0
0 0 0

-3.79823 -6.82628 0
19.615 1.03285 0
0 0 0

-0.616083 -5.34476 0
8.35667 -1.04147 0
0 0 0

-2.97352 -6.59206 0
17.1825 0.0118369 0
0 0 0

-3.64978 -6.94921 0
18.5827 1.88771 0
0 0 0

-3.37438 -13.149 0
10.8401 3.57483 0
0 0 0

-3.16217 -10.1335 0
17.5392 0.467191 0
0 0 0

-1.36458 -14.8007 0
15.5553 2.22286 0
0 0 0

-3.37922 -16.0641 0
10.4832 3.44367 0
0 0 0

-3.2897 -16.1283 0
10.4637 3.45764 0
0 0 0

-3.31087 -15.9824 0
10.4683 3.4259 0
0 0 0

-2.62304 -7.29565 0
10.2968 1.8905 0
0 0 0

-1.06751 -9.18718 0
6.68771 1.97954 0
0 0 0

-1.42167 -8.91627 0
7.72221 1.1882 0
0 0 0

-1.22738 -8.54162 0
9.94525 2.20433 0
0 0 0

-0.973576 -8.50736 0
8.63239 1.67924 0
0 0 0

1.10755 -3.30421 0
7.24049 -2.36288 0
0 0 0

3.05285 -5.95701 0
5.99662 -1.33005 0
0 0 0

-0.334213 -0.592138 0
5.76824 -3.89901 0
0 0 0

4.10695 -8.82804 0
5.48691 -2.89863 0
0 0 0

-0.372556 -10.7523 0
13.5714 -1.92978 0
0 0 0

0.379107 -12.6491 0
13.746 -0.00967932 0
0 0 0

5.01754 -9.53931 0
5.22364 -2.69298 0
0 0 0

3.4393 -9.01805 0
8.97692 -2.10937 0
0 0 0

1.83803 -7.27088 0
11.5641 0.684472 0
0 0 0

-0.735753 -6.1513 0
10.0031 1.43983 0
0 0 0

1.31509 -7.12157 0
10.31 -1.1033 0
0 0 0

0.492272 -6.4554 0
8.73472 0.172116 0
0 0 0

-0.142079 -7.15894 0
9.67188 1.85606 0
0 0 0

0.072087 -6.6889 0
9.87094 1.25261 0
0 0 0

0.234121 -7.15318 0
8.6111 1.83798 0
0 0 0

-0.198226 -7.03325 0
10.2256 1.70435 0
0 0 0

-0.948685 -6.49832 0
4.0508 -1.77499 0
0 0 0

2.25234 -7.77791 0
5.44177 -2.82186 0
0 0 0

0.188001 -4.9334 0
5.09792 -0.333367 0
0 0 0

1.77241 -6.2308 0
6.5575 -1.52855 0
0 0 0

5.64228 -8.47604 0
5.06611 -2.68492 0
0 0 0

5.8091 -7.88004 0
5.24067 -2.13475 0
0 0 0

2.76573 -8.00283 0
7.00978 -1.69171 0
0 0 0

5.76171 -7.94374 0
5.47234 -1.82337 0
0 0 0

4.27763 -7.75821 0
6.57659 -2.22329 0
0 0 0

0.245749 -6.53726 0
7.81446 0.465021 0
0 0 0

5.40912 -8.03614 0
5.59856 -1.37447 0
0 0 0

3.85843 -6.74126 0
4.96436 -0.0779224 0
0 0 0

0.651365 -6.80858 0
7.05965 1.2634 0
0 0 0

0.910714 -6.61414 0
6.71257 1.75591 0
0 0 0

0.988926 -6.35294 0
6.51191 0.524059 0
0 0 0

0.662478 -2.88668 0
5.85475 0.633595 0
0 0 0

7.96995 -5.06866 0
13.1974 0.413233 0
0 0 0

2.46994 -7.84227 0
7.17432 -1.80648 0
0 0 0

5.64009 -9.35761 0
12.6682 -1.91968 0
0 0 0

3.85195 -8.91554 0
11.6286 -2.59839 0
0 0 0

2.43737 -8.08123 0
7.05677 -1.84218 0
0 0 0

2.36007 -8.31912 0
6.91577 -1.70303 0
0 0 0

2.37466 -8.17494 0
7.08336 -2.00987 0
0 0 0

2.31887 -10.8274 0
7.10712 -1.19499 0
0 0 0

4.30911 -10.0761 0
5.16396 -1.5549 0
0 0 0

2.43719 -8.62121 0
4.33489 -0.910545 0
0 0 0

2.28081 -10.7964 0
7.57416 -1.5759 0
0 0 0

1.42852 -8.03662 0
4.50648 -0.975176 0
0 0 0

0.935062 -4.9973 0
3.79956 -0.0272138 0
0 0 0

-0.197332 -4.05852 0
5.25782 0.0834702 0
0 0 0

0.356848 -5.43707 0
3.88416 0.149511 0
0 0 0

-0.340984 -4.90474 0
4.03519 0.0342999 0
0 0 0

SCALARS active double 1
LOOKUP_TABLE default
1
1
1
1
1
1
1
1
1
1
1
1
1
1
1
1
1
1
1
1
1
1
1
1
1
1
1
1
1
1
1
1
1
1
1
1
1
1
1
1
1
1
1
1
1
1
1
1
1
1
1
1
1
1
1
1
1
1
1
1
1
1
1
1
SCALARS extent double 1
LOOKUP_TABLE default
0.0125
0.0125
0.0125
0.0125
0.0125
0.0125
0.0125
0.0125
0.0125
0.0125
0.0125
0.0125
0.0125
0.0125
0.0125
0.0125
0.0125
0.0125
0.0125
0.0125
0.0125
0.0125
0.0125
0.0125
0.0125
0.0125
0.0125
0.0125
0.0125
0.0125
0.0125
0.0125
0.0125
0.0125
0.0125
0.0125
0.0125
0.0125
0.0125
0.0125
0.0125
0.0125
0.0125
0.0125
0.0125
0.0125
0.0125
0.0125
0.0125
0.0125
0.0125
0.0125
0.0125
0.0125
0.0125
0.0125
0.0125
0.0125
0.0125
0.0125
0.0125
0.0125
0.0125
0.0125
SCALARS pressure double 1
LOOKUP_TABLE default
606.767
-1624.47
494.566
476.589
-628.025
-1922.61
-695.804
-1881.38
-908.215
-1860.1
-1706.82
-2437.27
742.053
-2781.11
-1396.11
-359.29
10173.8
-4185.31
-5074.98
-3156.43
5274.82
493.2
-823.053
-8126.99
-2360.54
-2855.55
-3279.46
195.844
535.3
-644.142
-1361.62
564.815
-2250.12
-2796.21
4134.72
4599.67
3113.42
1723.52
-1446.87
-2604.99
4551.35
-37.8899
-1137.91
-1200
-2471.74
372.092
-1097.63
-1373.3
2800.62
1552.95
-3953.77
-1250.83
-1201.14
-2620.27
-1542.35
1373.47
-3892.03
-1332.95
-2954.94
-2507.04
243.496
-567.671
-866.358
954.61
SCALARS density double 1
LOOKUP_TABLE default
1006.33
983.247
1005.16
1004.97
993.49
980.203
992.79
980.624
990.599
980.841
982.406
974.971
1007.75
971.491
985.585
996.27
1111.61
957.406
948.589
967.706
1056.39
1005.14
991.477
918.953
975.749
970.739
966.469
1002.04
1005.58
993.323
985.939
1005.89
976.87
971.338
1043.94
1049
1032.91
1018.09
985.065
973.272
1048.47
999.606
988.235
987.598
974.622
1003.88
988.65
985.819
1029.55
1016.28
959.715
987.076
987.586
973.117
984.088
1014.39
960.331
986.233
969.736
974.264
1002.54
994.114
991.03
1009.98
