# vtk DataFile Version 3.0
Frame: 1, Time: 0.017
ASCII
DATASET UNSTRUCTURED_GRID
POINTS 64 double
0.2485 0.210822 0 
0.2485 0.235822 0 
0.2735 0.210822 0 
0.2735 0.235822 0 
0.2485 0.260822 0 
0.2485 0.285822 0 
0.2735 0.260822 0 
0.2735 0.285822 0 
0.2485 0.310822 0 
0.2485 0.335822 0 
0.2735 0.310822 0 
0.2735 0.335822 0 
0.2485 0.360822 0 
0.2485 0.385822 0 
0.2735 0.360822 0 
0.2735 0.385822 0 
0.2985 0.210822 0 
0.2985 0.235822 0 
0.3235 0.210822 0 
0.3235 0.235822 0 
0.2985 0.260822 0 
0.2985 0.285822 0 
0.3235 0.260822 0 
0.3235 0.285822 0 
0.2985 0.310822 0 
0.2985 0.335822 0 
0.3235 0.310822 0 
0.3235 0.335822 0 
0.2985 0.360822 0 
0.2985 0.385822 0 
0.3235 0.360822 0 
0.3235 0.385822 0 
0.3485 0.210822 0 
0.3485 0.235822 0 
0.3735 0.210822 0 
0.3735 0.235822 0 
0.3485 0.260822 0 
0.3485 0.285822 0 
0.3735 0.260822 0 
0.3735 0.285822 0 
0.3485 0.310822 0 
0.3485 0.335822 0 
0.3735 0.310822 0 
0.3735 0.335822 0 
0.3485 0.360822 0 
0.3485 0.385822 0 
0.3735 0.360822 0 
0.3735 0.385822 0 
0.3985 0.210822 0 
0.3985 0.235822 0 
0.4235 0.210822 0 
0.4235 0.235822 0 
0.3985 0.260822 0 
0.3985 0.285822 0 
0.4235 0.260822 0 
0.4235 0.285822 0 
0.3985 0.310822 0 
0.3985 0.335822 0 
0.4235 0.310822 0 
0.4235 0.335822 0 
0.3985 0.360822 0 
0.3985 0.385822 0 
0.4235 0.360822 0 
0.4235 0.385822 0 
CELLS 64 128
1 0
1 1
1 2
1 3
1 4
1 5
1 6
1 7
1 8
1 9
1 10
1 11
1 12
1 13
1 14
1 15
1 16
1 17
1 18
1 19
1 20
1 21
1 22
1 23
1 24
1 25
1 26
1 27
1 28
1 29
1 30
1 31
1 32
1 33
1 34
1 35
1 36
1 37
1 38
1 39
1 40
1 41
1 42
1 43
1 44
1 45
1 46
1 47
1 48
1 49
1 50
1 51
1 52
1 53
1 54
1 55
1 56
1 57
1 58
1 59
1 60
1 61
1 62
1 63
CELL_TYPES 64
1
1
1
1
1
1
1
1
1
1
1
1
1
1
1
1
1
1
1
1
1
1
1
1
1
1
1
1
1
1
1
1
1
1
1
1
1
1
1
1
1
1
1
1
1
1
1
1
1
1
1
1
1
1
1
1
1
1
1
1
1
1
1
1
POINT_DATA 64
VECTORS displacement double
0.036 -0.00167751 0 
0.036 -0.00167751 0 
0.036 -0.00167751 0 
0.036 -0.00167751 0 
0.036 -0.00167751 0 
0.036 -0.00167751 0 
0.036 -0.00167751 0 
0.036 -0.00167751 0 
0.036 -0.00167751 0 
0.036 -0.00167751 0 
0.036 -0.00167751 0 
0.036 -0.00167751 0 
0.036 -0.00167751 0 
0.036 -0.00167751 0 
0.036 -0.00167751 0 
0.036 -0.00167751 0 
0.036 -0.00167751 0 
0.036 -0.00167751 0 
0.036 -0.00167751 0 
0.036 -0.00167751 0 
0.036 -0.00167751 0 
0.036 -0.00167751 0 
0.036 -0.00167751 0 
0.036 -0.00167751 0 
0.036 -0.00167751 0 
0.036 -0.00167751 0 
0.036 -0.00167751 0 
0.036 -0.00167751 0 
0.036 -0.00167751 0 
0.036 -0.00167751 0 
0.036 -0.00167751 0 
0.036 -0.00167751 0 
0.036 -0.00167751 0 
0.036 -0.00167751 0 
0.036 -0.00167751 0 
0.036 -0.00167751 0 
0.036 -0.00167751 0 
0.036 -0.00167751 0 
0.036 -0.00167751 0 
0.036 -0.00167751 0 
0.036 -0.00167751 0 
0.036 -0.00167751 0 
0.036 -0.00167751 0 
0.036 -0.00167751 0 
0.036 -0.00167751 0 
0.036 -0.00167751 0 
0.036 -0.00167751 0 
0.036 -0.00167751 0 
0.036 -0.00167751 0 
0.036 -0.00167751 0 
0.036 -0.00167751 0 
0.036 -0.00167751 0 
0.036 -0.00167751 0 
0.036 -0.00167751 0 
0.036 -0.00167751 0 
0.036 -0.00167751 0 
0.036 -0.00167751 0 
0.036 -0.00167751 0 
0.036 -0.00167751 0 
0.036 -0.00167751 0 
0.036 -0.00167751 0 
0.036 -0.00167751 0 
0.036 -0.00167751 0 
0.036 -0.00167751 0 
VECTORS velocity double
2 -0.17658 0 
2 -0.17658 0 
2 -0.17658 0 
2 -0.17658 0 
2 -0.17658 0 
2 -0.17658 0 
2 -0.17658 0 
2 -0.17658 0 
2 -0.17658 0 
2 -0.17658 0 
2 -0.17658 0 
2 -0.17658 0 
2 -0.17658 0 
2 -0.17658 0 
2 -0.17658 0 
2 -0.17658 0 
2 -0.17658 0 
2 -0.17658 0 
2 -0.17658 0 
2 -0.17658 0 
2 -0.17658 0 
2 -0.17658 0 
2 -0.17658 0 
2 -0.17658 0 
2 -0.17658 0 
2 -0.17658 0 
2 -0.17658 0 
2 -0.17658 0 
2 -0.17658 0 
2 -0.17658 0 
2 -0.17658 0 
2 -0.17658 0 
2 -0.17658 0 
2 -0.17658 0 
2 -0.17658 0 
2 -0.17658 0 
2 -0.17658 0 
2 -0.17658 0 
2 -0.17658 0 
2 -0.17658 0 
2 -0.17658 0 
2 -0.17658 0 
2 -0.17658 0 
2 -0.17658 0 
2 -0.17658 0 
2 -0.17658 0 
2 -0.17658 0 
2 -0.17658 0 
2 -0.17658 0 
2 -0.17658 0 
2 -0.17658 0 
2 -0.17658 0 
2 -0.17658 0 
2 -0.17658 0 
2 -0.17658 0 
2 -0.17658 0 
2 -0.17658 0 
2 -0.17658 0 
2 -0.17658 0 
2 -0.17658 0 
2 -0.17658 0 
2 -0.17658 0 
2 -0.17658 0 
2 -0.17658 0 
SCALARS mass double 1
LOOKUP_TABLE default
0.625
0.625
0.625
0.625
0.625
0.625
0.625
0.625
0.625
0.625
0.625
0.625
0.625
0.625
0.625
0.625
0.625
0.625
0.625
0.625
0.625
0.625
0.625
0.625
0.625
0.625
0.625
0.625
0.625
0.625
0.625
0.625
0.625
0.625
0.625
0.625
0.625
0.625
0.625
0.625
0.625
0.625
0.625
0.625
0.625
0.625
0.625
0.625
0.625
0.625
0.625
0.625
0.625
0.625
0.625
0.625
0.625
0.625
0.625
0.625
0.625
0.625
0.625
0.625
SCALARS volume double 1
LOOKUP_TABLE default
0.000625
0.000625
0.000625
0.000625
0.000625
0.000625
0.000625
0.000625
0.000625
0.000625
0.000625
0.000625
0.000625
0.000625
0.000625
0.000625
0.000625
0.000625
0.000625
0.000625
0.000625
0.000625
0.000625
0.000625
0.000625
0.000625
0.000625
0.000625
0.000625
0.000625
0.000625
0.000625
0.000625
0.000625
0.000625
0.000625
0.000625
0.000625
0.000625
0.000625
0.000625
0.000625
0.000625
0.000625
0.000625
0.000625
0.000625
0.000625
0.000625
0.000625
0.000625
0.000625
0.000625
0.000625
0.000625
0.000625
0.000625
0.000625
0.000625
0.000625
0.000625
0.000625
0.000625
0.000625
VECTORS momentum double
1.25 -0.110363 0 
1.25 -0.110363 0 
1.25 -0.110363 0 
1.25 -0.110362 0 
1.25 -0.110363 0 
1.25 -0.110363 0 
1.25 -0.110362 0 
1.25 -0.110362 0 
1.25 -0.110363 0 
1.25 -0.110363 0 
1.25 -0.110363 0 
1.25 -0.110362 0 
1.25 -0.110362 0 
1.25 -0.110362 0 
1.25 -0.110362 0 
1.25 -0.110362 0 
1.25 -0.110362 0 
1.25 -0.110362 0 
1.25 -0.110362 0 
1.25 -0.110362 0 
1.25 -0.110362 0 
1.25 -0.110363 0 
1.25 -0.110363 0 
1.25 -0.110362 0 
1.25 -0.110363 0 
1.25 -0.110363 0 
1.25 -0.110363 0 
1.25 -0.110363 0 
1.25 -0.110363 0 
1.25 -0.110363 0 
1.25 -0.110363 0 
1.25 -0.110363 0 
1.25 -0.110363 0 
1.25 -0.110362 0 
1.25 -0.110363 0 
1.25 -0.110362 0 
1.25 -0.110362 0 
1.25 -0.110362 0 
1.25 -0.110362 0 
1.25 -0.110362 0 
1.25 -0.110363 0 
1.25 -0.110363 0 
1.25 -0.110363 0 
1.25 -0.110363 0 
1.25 -0.110363 0 
1.25 -0.110362 0 
1.25 -0.110362 0 
1.25 -0.110362 0 
1.25 -0.110363 0 
1.25 -0.110362 0 
1.25 -0.110362 0 
1.25 -0.110362 0 
1.25 -0.110362 0 
1.25 -0.110362 0 
1.25 -0.110362 0 
1.25 -0.110362 0 
1.25 -0.110363 0 
1.25 -0.110363 0 
1.25 -0.110363 0 
1.25 -0.110362 0 
1.25 -0.110362 0 
1.25 -0.110362 0 
1.25 -0.110363 0 
1.25 -0.110363 0 
VECTORS body_force double
0 -9.81 0 
0 -9.81 0 
0 -9.81 0 
0 -9.81 0 
0 -9.81 0 
0 -9.81 0 
0 -9.81 0 
0 -9.81 0 
0 -9.81 0 
0 -9.81 0 
0 -9.81 0 
0 -9.81 0 
0 -9.81 0 
0 -9.81 0 
0 -9.81 0 
0 -9.81 0 
0 -9.81 0 
0 -9.81 0 
0 -9.81 0 
0 -9.81 0 
0 -9.81 0 
0 -9.81 0 
0 -9.81 0 
0 -9.81 0 
0 -9.81 0 
0 -9.81 0 
0 -9.81 0 
0 -9.81 0 
0 -9.81 0 
0 -9.81 0 
0 -9.81 0 
0 -9.81 0 
0 -9.81 0 
0 -9.81 0 
0 -9.81 0 
0 -9.81 0 
0 -9.81 0 
0 -9.81 0 
0 -9.81 0 
0 -9.81 0 
0 -9.81 0 
0 -9.81 0 
0 -9.81 0 
0 -9.81 0 
0 -9.81 0 
0 -9.81 0 
0 -9.81 0 
0 -9.81 0 
0 -9.81 0 
0 -9.81 0 
0 -9.81 0 
0 -9.81 0 
0 -9.81 0 
0 -9.81 0 
0 -9.81 0 
0 -9.81 0 
0 -9.81 0 
0 -9.81 0 
0 -9.81 0 
0 -9.81 0 
0 -9.81 0 
0 -9.81 0 
0 -9.81 0 
0 -9.81 0 
TENSORS cauchy_stress double
-2.9752e-11 1.40833e-12 0
1.40833e-12 -5.1628e-13 0
0 0 0

-3.37067e-11 -1.56766e-12 0
-1.56766e-12 -2.35682e-12 0
0 0 0

-2.98522e-11 9.80412e-12 0
9.80412e-12 -4.35122e-12 0
0 0 0

-3.51279e-11 6.79798e-12 0
6.79798e-12 -6.35603e-12 0
0 0 0

-2.56971e-11 1.06912e-12 0
1.06912e-12 -4.20684e-12 0
0 0 0

-2.70243e-11 -1.328e-12 0
-1.328e-12 -5.60983e-12 0
0 0 0

-3.25762e-11 -4.11129e-13 0
-4.11129e-13 -1.2586e-11 0
0 0 0

-2.08343e-11 7.19617e-12 0
7.19617e-12 -7.62051e-12 0
0 0 0

-3.57769e-11 4.50494e-12 0
4.50494e-12 -7.92742e-12 0
0 0 0

-3.36961e-11 -3.98239e-12 0
-3.98239e-12 -5.80492e-12 0
0 0 0

-3.07908e-11 -5.34989e-12 0
-5.34989e-12 -9.55886e-12 0
0 0 0

-3.21321e-11 -3.83294e-12 0
-3.83294e-12 -1.00697e-11 0
0 0 0

-2.91512e-11 1.41954e-12 0
1.41954e-12 -9.64907e-13 0
0 0 0

-3.08453e-11 5.05418e-12 0
5.05418e-12 -1.65813e-12 0
0 0 0

-3.71218e-11 -8.58061e-12 0
-8.58061e-12 -8.84502e-12 0
0 0 0

-2.974e-11 -1.09477e-11 0
-1.09477e-11 -5.39886e-12 0
0 0 0

1.56171e-10 1.65949e-11 0
1.65949e-11 5.58137e-11 0
0 0 0

1.62794e-10 4.87858e-12 0
4.87858e-12 5.73185e-11 0
0 0 0

5.63115e-11 -3.96851e-12 0
-3.96851e-12 5.68215e-12 0
0 0 0

6.74156e-11 -3.06379e-13 0
-3.06379e-13 1.17785e-11 0
0 0 0

1.52854e-10 8.39179e-12 0
8.39179e-12 6.3517e-11 0
0 0 0

1.54572e-10 -5.66748e-12 0
-5.66748e-12 6.36985e-11 0
0 0 0

6.37348e-11 -6.84388e-12 0
-6.84388e-12 2.25477e-11 0
0 0 0

5.13197e-11 -2.80572e-12 0
-2.80572e-12 1.74915e-11 0
0 0 0

1.63193e-10 -7.52603e-13 0
-7.52603e-13 6.76857e-11 0
0 0 0

1.61477e-10 -6.53644e-12 0
-6.53644e-12 6.66577e-11 0
0 0 0

6.19622e-11 -6.67842e-12 0
-6.67842e-12 2.25108e-11 0
0 0 0

6.03082e-11 -2.60716e-12 0
-2.60716e-12 2.05873e-11 0
0 0 0

1.56575e-10 -5.25328e-12 0
-5.25328e-12 5.65717e-11 0
0 0 0

1.49904e-10 -1.25338e-11 0
-1.25338e-11 5.37738e-11 0
0 0 0

6.02939e-11 1.06912e-12 0
1.06912e-12 1.01919e-11 0
0 0 0

4.8256e-11 3.09421e-12 0
3.09421e-12 5.21885e-12 0
0 0 0

-8.40276e-11 -1.93702e-12 0
-1.93702e-12 -4.16865e-11 0
0 0 0

-9.0504e-11 -1.00454e-12 0
-1.00454e-12 -4.49272e-11 0
0 0 0

1.51815e-12 4.12571e-12 0
4.12571e-12 8.66428e-13 0
0 0 0

1.18682e-12 -2.50814e-12 0
-2.50814e-12 -1.91353e-13 0
0 0 0

-7.66337e-11 -1.74113e-12 0
-1.74113e-12 -3.86534e-11 0
0 0 0

-9.43185e-11 -4.55245e-12 0
-4.55245e-12 -4.60847e-11 0
0 0 0

-9.39486e-12 -5.58501e-12 0
-5.58501e-12 -9.85123e-12 0
0 0 0

-1.12319e-11 -8.92128e-12 0
-8.92128e-12 -1.00384e-11 0
0 0 0

-9.47251e-11 -1.71417e-12 0
-1.71417e-12 -4.54392e-11 0
0 0 0

-9.20079e-11 -2.27969e-12 0
-2.27969e-12 -4.428e-11 0
0 0 0

-4.75935e-12 -1.05992e-12 0
-1.05992e-12 -7.2336e-12 0
0 0 0

-3.33974e-12 -9.19137e-13 0
-9.19137e-13 -5.51535e-12 0
0 0 0

-9.09349e-11 3.38538e-12 0
3.38538e-12 -4.37691e-11 0
0 0 0

-9.00031e-11 7.50094e-12 0
7.50094e-12 -4.30182e-11 0
0 0 0

5.83201e-13 3.04978e-12 0
3.04978e-12 -1.14432e-12 0
0 0 0

5.05712e-12 2.90313e-12 0
2.90313e-12 1.32399e-12 0
0 0 0

-1.46009e-11 8.72699e-14 0
8.72699e-14 -5.62998e-12 0
0 0 0

4.77796e-12 -4.58501e-13 0
-4.58501e-13 2.83614e-12 0
0 0 0

1.72091e-12 1.07326e-12 0
1.07326e-12 3.14719e-13 0
0 0 0

1.4792e-11 1.3264e-13 0
1.3264e-13 6.73059e-12 0
0 0 0

1.21016e-11 2.98986e-12 0
2.98986e-12 2.90112e-12 0
0 0 0

2.08514e-12 -4.30051e-12 0
-4.30051e-12 -3.1572e-13 0
0 0 0

5.18462e-12 1.9549e-13 0
1.9549e-13 2.98793e-12 0
0 0 0

-6.61116e-12 -4.50494e-13 0
-4.50494e-13 -1.53403e-12 0
0 0 0

7.88512e-12 -2.61089e-12 0
-2.61089e-12 -5.60583e-13 0
0 0 0

7.8212e-12 -1.04724e-12 0
-1.04724e-12 -9.94397e-13 0
0 0 0

1.67468e-11 1.13558e-13 0
1.13558e-13 3.71958e-12 0
0 0 0

3.97932e-12 -8.75635e-13 0
-8.75635e-13 -1.76021e-12 0
0 0 0

3.29824e-12 -3.48466e-12 0
-3.48466e-12 -4.59969e-13 0
0 0 0

2.2063e-12 -4.22685e-12 0
-4.22685e-12 2.51668e-13 0
0 0 0

8.74154e-12 -3.40139e-12 0
-3.40139e-12 1.66547e-12 0
0 0 0

4.4525e-12 -2.55004e-12 0
-2.55004e-12 -6.56126e-13 0
0 0 0

TENSORS velocity_gradient double
-1.25455e-13 -4.01901e-14 0
2.60347e-14 -1.4988e-15 0
0 0 0

-8.43769e-14 2.93099e-14 0
2.66454e-14 -1.77636e-15 0
0 0 0

6.92779e-14 1.24345e-14 0
2.68674e-14 -1.22125e-14 0
0 0 0

4.26326e-14 -1.42109e-14 0
1.82077e-14 -1.19904e-14 0
0 0 0

-1.0747e-13 -7.99361e-15 0
2.5091e-14 1.11022e-15 0
0 0 0

-9.10383e-14 -1.9984e-14 0
1.90403e-14 -4.996e-16 0
0 0 0

4.44089e-14 -1.24345e-14 0
8.21565e-15 -4.21885e-15 0
0 0 0

4.9738e-14 3.55271e-14 0
3.10862e-15 -5.77316e-15 0
0 0 0

-1.09024e-13 4.66294e-15 0
1.7264e-14 3.94129e-15 0
0 0 0

-9.63674e-14 -1.11022e-14 0
1.13243e-14 5.9952e-15 0
0 0 0

3.55271e-14 2.13163e-14 0
8.88178e-16 2.66454e-15 0
0 0 0

4.26326e-14 2.84217e-14 0
-4.88498e-15 -1.33227e-15 0
0 0 0

-1.1835e-13 -4.72955e-14 0
6.60583e-15 1.27676e-15 0
0 0 0

-8.61533e-14 -8.88178e-16 0
-1.4988e-15 2.05391e-15 0
0 0 0

5.68434e-14 5.68434e-14 0
-1.19904e-14 -1.02141e-14 0
0 0 0

6.39488e-14 2.13163e-14 0
-2.66454e-14 -1.06581e-14 0
0 0 0

2.1938e-13 -3.64153e-14 0
1.11022e-15 -2.02061e-14 0
0 0 0

2.08722e-13 -4.70735e-14 0
-3.27516e-15 -2.01505e-14 0
0 0 0

-3.55271e-14 7.10543e-15 0
-2.64233e-14 -1.04361e-14 0
0 0 0

-2.13163e-14 7.10543e-15 0
-8.88178e-15 -1.06581e-14 0
0 0 0

1.96954e-13 4.06342e-14 0
-7.07767e-15 -1.06304e-14 0
0 0 0

2.08278e-13 -1.90958e-14 0
-1.16018e-14 -9.82547e-15 0
0 0 0

-7.10543e-15 -4.9738e-14 0
-4.44089e-16 -9.32587e-15 0
0 0 0

7.10543e-15 7.10543e-15 0
1.33227e-15 -9.32587e-15 0
0 0 0

1.78746e-13 8.21565e-15 0
-1.34615e-14 -4.57967e-15 0
0 0 0

2.04725e-13 -2.26485e-14 0
-1.95399e-14 -5.32907e-15 0
0 0 0

-1.06581e-14 -1.06581e-14 0
1.9984e-15 -8.65974e-15 0
0 0 0

-7.10543e-15 -7.10543e-15 0
2.22045e-15 -6.66134e-15 0
0 0 0

1.76081e-13 4.81837e-14 0
-2.14551e-14 -2.14551e-14 0
0 0 0

2.06501e-13 3.59712e-14 0
-2.90878e-14 -2.02061e-14 0
0 0 0

-2.84217e-14 0 0
1.28786e-14 -4.88498e-15 0
0 0 0

-3.55271e-14 -7.10543e-15 0
2.79776e-14 -6.66134e-15 0
0 0 0

-1.88738e-14 5.21805e-14 0
-2.05946e-14 8.71525e-15 0
0 0 0

-7.54952e-15 6.66134e-15 0
-6.99441e-15 5.44009e-15 0
0 0 0

-4.26326e-14 2.84217e-14 0
2.44249e-15 5.9952e-15 0
0 0 0

0 -4.26326e-14 0
-1.33227e-15 9.32587e-15 0
0 0 0

-6.43929e-15 -3.4861e-14 0
-1.30451e-15 -1.01863e-14 0
0 0 0

-3.01981e-14 -4.44089e-14 0
3.33067e-15 -6.43929e-15 0
0 0 0

-2.30926e-14 -3.73035e-14 0
-1.77636e-15 -5.32907e-15 0
0 0 0

-7.10543e-15 -3.55271e-14 0
3.55271e-15 -7.10543e-15 0
0 0 0

-2.02061e-14 2.24265e-14 0
3.91354e-15 -4.96825e-15 0
0 0 0

-3.10862e-15 -1.73195e-14 0
1.77636e-15 -3.55271e-15 0
0 0 0

-8.88178e-15 -3.73035e-14 0
5.10703e-15 -5.55112e-15 0
0 0 0

0 0 0
3.9968e-15 -3.10862e-15 0
0 0 0

-3.4861e-14 2.19824e-14 0
1.05749e-14 7.91034e-15 0
0 0 0

-3.24185e-14 -1.82077e-14 0
2.04281e-14 1.06581e-14 0
0 0 0

1.77636e-15 1.77636e-15 0
3.33067e-15 5.10703e-15 0
0 0 0

7.10543e-15 -2.13163e-14 0
-5.77316e-15 7.54952e-15 0
0 0 0

-1.66533e-14 -1.66533e-14 0
1.47105e-15 8.57647e-15 0
0 0 0

7.10543e-15 3.55271e-14 0
-1.27676e-15 1.11577e-14 0
0 0 0

-1.77636e-15 2.66454e-14 0
1.55431e-15 1.55431e-15 0
0 0 0

7.10543e-15 7.10543e-15 0
-2.66454e-15 4.44089e-15 0
0 0 0

-2.64233e-14 -1.22125e-14 0
-5.55112e-17 -5.55112e-17 0
0 0 0

-5.77316e-15 8.43769e-15 0
-5.55112e-17 -1.83187e-15 0
0 0 0

-1.24345e-14 -1.24345e-14 0
-5.9952e-15 -4.21885e-15 0
0 0 0

-7.10543e-15 -7.10543e-15 0
-3.10862e-15 4.44089e-16 0
0 0 0

-8.65974e-15 -8.65974e-15 0
6.66134e-16 -2.88658e-15 0
0 0 0

7.10543e-15 3.55271e-14 0
2.72005e-15 -1.72085e-15 0
0 0 0

-8.88178e-15 -2.30926e-14 0
-3.33067e-15 -2.44249e-15 0
0 0 0

0 0 0
-5.32907e-15 -3.55271e-15 0
0 0 0

-1.11022e-15 -2.95319e-14 0
6.66134e-16 6.66134e-16 0
0 0 0

-6.21725e-15 -6.21725e-15 0
-3.4972e-15 2.72005e-15 0
0 0 0

-8.88178e-15 -3.73035e-14 0
-4.21885e-15 -6.66134e-16 0
0 0 0

0 0 0
-6.21725e-15 8.88178e-16 0
0 0 0

SCALARS active double 1
LOOKUP_TABLE default
1
1
1
1
1
1
1
1
1
1
1
1
1
1
1
1
1
1
1
1
1
1
1
1
1
1
1
1
1
1
1
1
1
1
1
1
1
1
1
1
1
1
1
1
1
1
1
1
1
1
1
1
1
1
1
1
1
1
1
1
1
1
1
1
SCALARS extent double 1
LOOKUP_TABLE default
0.0125
0.0125
0.0125
0.0125
0.0125
0.0125
0.0125
0.0125
0.0125
0.0125
0.0125
0.0125
0.0125
0.0125
0.0125
0.0125
0.0125
0.0125
0.0125
0.0125
0.0125
0.0125
0.0125
0.0125
0.0125
0.0125
0.0125
0.0125
0.0125
0.0125
0.0125
0.0125
0.0125
0.0125
0.0125
0.0125
0.0125
0.0125
0.0125
0.0125
0.0125
0.0125
0.0125
0.0125
0.0125
0.0125
0.0125
0.0125
0.0125
0.0125
0.0125
0.0125
0.0125
0.0125
0.0125
0.0125
0.0125
0.0125
0.0125
0.0125
0.0125
0.0125
0.0125
0.0125
SCALARS pressure double 1
LOOKUP_TABLE default
1.51341e-11
1.80318e-11
1.71017e-11
2.0742e-11
1.4952e-11
1.63171e-11
2.25811e-11
1.42274e-11
2.18522e-11
1.97505e-11
2.01748e-11
2.11009e-11
1.50581e-11
1.62517e-11
2.29834e-11
1.75694e-11
-1.05992e-10
-1.10056e-10
-3.09968e-11
-3.95971e-11
-1.08185e-10
-1.09135e-10
-4.31412e-11
-3.44056e-11
-1.15439e-10
-1.14067e-10
-4.22365e-11
-4.04477e-11
-1.06573e-10
-1.01839e-10
-3.52429e-11
-2.67374e-11
6.2857e-11
6.77156e-11
-1.19229e-12
-4.97732e-13
5.76435e-11
7.02016e-11
9.62304e-12
1.06352e-11
7.00822e-11
6.81439e-11
5.99647e-12
4.42755e-12
6.7352e-11
6.65106e-11
2.80558e-13
-3.19056e-12
1.01154e-11
-3.80705e-12
-1.01782e-12
-1.07613e-11
-7.50134e-12
-8.84709e-13
-4.08627e-12
4.0726e-12
-3.66227e-12
-3.4134e-12
-1.02332e-11
-1.10956e-12
-1.41914e-12
-1.22898e-12
-5.2035e-12
-1.89819e-12
SCALARS density double 1
LOOKUP_TABLE default
1000
1000
1000
1000
1000
1000
1000
1000
1000
1000
1000
1000
1000
1000
1000
1000
1000
1000
1000
1000
1000
1000
1000
1000
1000
1000
1000
1000
1000
1000
1000
1000
1000
1000
1000
1000
1000
1000
1000
1000
1000
1000
1000
1000
1000
1000
1000
1000
1000
1000
1000
1000
1000
1000
1000
1000
1000
1000
1000
1000
1000
1000
1000
1000
