# vtk DataFile Version 3.0
Frame: 53, Time: 0.901
ASCII
DATASET UNSTRUCTURED_GRID
POINTS 64 double
0.462982 0.233186 0 
0.460604 0.209468 0 
0.434627 0.235482 0 
0.433743 0.210553 0 
0.459462 0.182827 0 
0.462166 0.158259 0 
0.432962 0.183964 0 
0.433731 0.15825 0 
0.457313 0.13199 0 
0.456312 0.105432 0 
0.431217 0.132974 0 
0.429526 0.107053 0 
0.456802 0.0824093 0 
0.457467 0.0568895 0 
0.429236 0.0812711 0 
0.429305 0.0550325 0 
0.405987 0.234076 0 
0.407435 0.209339 0 
0.381622 0.238924 0 
0.380786 0.21338 0 
0.408309 0.185017 0 
0.407631 0.159426 0 
0.382702 0.187505 0 
0.382457 0.160736 0 
0.40459 0.133377 0 
0.405119 0.108869 0 
0.379288 0.135933 0 
0.379529 0.110105 0 
0.405737 0.0837433 0 
0.404787 0.0568514 0 
0.380504 0.0848136 0 
0.379287 0.0606589 0 
0.355373 0.239603 0 
0.355526 0.212872 0 
0.327482 0.242153 0 
0.329517 0.213454 0 
0.356103 0.187969 0 
0.3561 0.161854 0 
0.330723 0.18785 0 
0.330171 0.161799 0 
0.353975 0.135864 0 
0.353519 0.110526 0 
0.32938 0.136807 0 
0.328061 0.111609 0 
0.354295 0.0847043 0 
0.353103 0.0588694 0 
0.329401 0.0852419 0 
0.328842 0.0590399 0 
0.303574 0.242073 0 
0.304949 0.213474 0 
0.276711 0.23859 0 
0.278737 0.212049 0 
0.304291 0.188987 0 
0.303529 0.163665 0 
0.276972 0.188082 0 
0.278292 0.162926 0 
0.3035 0.137459 0 
0.303501 0.111098 0 
0.279707 0.136666 0 
0.277719 0.111255 0 
0.304204 0.085484 0 
0.3041 0.0586393 0 
0.277443 0.084902 0 
0.277525 0.0610366 0 
CELLS 64 128
1 0
1 1
1 2
1 3
1 4
1 5
1 6
1 7
1 8
1 9
1 10
1 11
1 12
1 13
1 14
1 15
1 16
1 17
1 18
1 19
1 20
1 21
1 22
1 23
1 24
1 25
1 26
1 27
1 28
1 29
1 30
1 31
1 32
1 33
1 34
1 35
1 36
1 37
1 38
1 39
1 40
1 41
1 42
1 43
1 44
1 45
1 46
1 47
1 48
1 49
1 50
1 51
1 52
1 53
1 54
1 55
1 56
1 57
1 58
1 59
1 60
1 61
1 62
1 63
CELL_TYPES 64
1
1
1
1
1
1
1
1
1
1
1
1
1
1
1
1
1
1
1
1
1
1
1
1
1
1
1
1
1
1
1
1
1
1
1
1
1
1
1
1
1
1
1
1
1
1
1
1
1
1
1
1
1
1
1
1
1
1
1
1
1
1
1
1
POINT_DATA 64
VECTORS displacement double
-0.149518 -0.0793144 0 
-0.151896 -0.128032 0 
-0.202873 -0.0770176 0 
-0.203757 -0.126947 0 
-0.153038 -0.179673 0 
-0.150334 -0.229241 0 
-0.204538 -0.178536 0 
-0.203769 -0.22925 0 
-0.155187 -0.28051 0 
-0.156188 -0.332068 0 
-0.206283 -0.279526 0 
-0.207974 -0.330447 0 
-0.155698 -0.380091 0 
-0.155033 -0.430611 0 
-0.208264 -0.381229 0 
-0.208195 -0.432467 0 
-0.256513 -0.078424 0 
-0.255065 -0.128161 0 
-0.305878 -0.0735763 0 
-0.306714 -0.12412 0 
-0.254191 -0.177483 0 
-0.254869 -0.228074 0 
-0.304798 -0.174995 0 
-0.305043 -0.226764 0 
-0.25791 -0.279123 0 
-0.257381 -0.328631 0 
-0.308212 -0.276567 0 
-0.307971 -0.327395 0 
-0.256763 -0.378757 0 
-0.257713 -0.430649 0 
-0.306996 -0.377686 0 
-0.308213 -0.426841 0 
-0.357127 -0.0728969 0 
-0.356974 -0.124628 0 
-0.410018 -0.0703466 0 
-0.407983 -0.124046 0 
-0.356397 -0.174531 0 
-0.3564 -0.225646 0 
-0.406777 -0.17465 0 
-0.407329 -0.225701 0 
-0.358525 -0.276636 0 
-0.358981 -0.326974 0 
-0.40812 -0.275693 0 
-0.409439 -0.325891 0 
-0.358205 -0.377796 0 
-0.359397 -0.428631 0 
-0.408099 -0.377258 0 
-0.408658 -0.42846 0 
-0.458926 -0.0704271 0 
-0.457551 -0.124026 0 
-0.510789 -0.0739102 0 
-0.508763 -0.125451 0 
-0.458209 -0.173513 0 
-0.458971 -0.223835 0 
-0.510528 -0.174418 0 
-0.509208 -0.224574 0 
-0.459 -0.275041 0 
-0.458999 -0.326402 0 
-0.507793 -0.275834 0 
-0.509781 -0.326245 0 
-0.458296 -0.377016 0 
-0.4584 -0.428861 0 
-0.510057 -0.377598 0 
-0.509975 -0.426463 0 
VECTORS velocity double
-0.136836 -0.46915 0 
0.0756041 -0.41942 0 
-0.00318106 -0.569383 0 
-0.162108 -0.319025 0 
-0.299974 -0.776141 0 
-0.154489 -0.2851 0 
-0.172191 -0.632475 0 
-0.374537 -0.476722 0 
-0.809115 -0.512075 0 
-0.198123 -0.281411 0 
-0.50069 -0.0858433 0 
-0.518639 0.0956314 0 
-0.523021 -0.045841 0 
-0.16889 -0.186632 0 
-0.409313 0.223142 0 
-0.488223 0.0567169 0 
0.0454772 -0.720457 0 
-0.10546 -0.305663 0 
0.268822 -0.165074 0 
-0.406667 -0.0989195 0 
0.256187 -0.276865 0 
-0.0370372 -0.389043 0 
-0.380697 -0.457357 0 
-0.630951 -0.411708 0 
-0.770685 0.0550475 0 
-0.723101 -0.292176 0 
-1.04088 0.0736159 0 
-0.859309 -0.409895 0 
-0.328059 -0.190862 0 
0.0650742 0.0271794 0 
-0.73959 -0.0755999 0 
-0.365676 0.137227 0 
0.286039 -0.822105 0 
0.125848 0.00241713 0 
-0.0239696 0.23028 0 
-0.0068914 -0.170879 0 
-0.317981 -0.469569 0 
-0.118051 -0.607094 0 
-0.592093 0.149048 0 
-0.466701 -0.225194 0 
-0.422777 0.134709 0 
-0.210033 -0.490115 0 
-0.608508 0.305775 0 
-0.769971 -0.127505 0 
-0.474978 -0.170994 0 
-0.144709 -0.341723 0 
-0.943279 -0.42889 0 
-0.464864 -0.327136 0 
0.413472 -0.116219 0 
-0.118429 -0.451366 0 
0.225794 0.432981 0 
0.314958 0.193503 0 
-0.409385 0.0903236 0 
-0.342705 -0.48683 0 
-0.415686 0.255954 0 
-0.696916 0.180967 0 
-0.569852 -0.462045 0 
-0.51058 -0.299759 0 
0.119913 0.097967 0 
-0.122379 -0.124265 0 
-0.449482 -0.251937 0 
-0.590137 -0.002998 0 
-1.07628 -0.14404 0 
-0.414634 -0.292489 0 
SCALARS mass double 1
LOOKUP_TABLE default
0.625
0.625
0.625
0.625
0.625
0.625
0.625
0.625
0.625
0.625
0.625
0.625
0.625
0.625
0.625
0.625
0.625
0.625
0.625
0.625
0.625
0.625
0.625
0.625
0.625
0.625
0.625
0.625
0.625
0.625
0.625
0.625
0.625
0.625
0.625
0.625
0.625
0.625
0.625
0.625
0.625
0.625
0.625
0.625
0.625
0.625
0.625
0.625
0.625
0.625
0.625
0.625
0.625
0.625
0.625
0.625
0.625
0.625
0.625
0.625
0.625
0.625
0.625
0.625
SCALARS volume double 1
LOOKUP_TABLE default
0.000621745
0.00062312
0.000631388
0.00062937
0.000641528
0.000631252
0.00063289
0.00061544
0.000623405
0.000616981
0.000624853
0.000622606
0.000603007
0.000656755
0.000668184
0.000623973
0.000606058
0.000657589
0.000616105
0.00061654
0.000578165
0.000646189
0.00066408
0.000620636
0.000624584
0.000616811
0.000618397
0.000648899
0.000595953
0.000616421
0.000605623
0.000642149
0.000630637
0.00062294
0.000642719
0.000628857
0.000670279
0.000616608
0.000620669
0.000619692
0.000642385
0.000644681
0.000610032
0.000619691
0.000620837
0.000615678
0.000632148
0.000626349
0.000625956
0.000614644
0.000608732
0.00062109
0.000662866
0.000664669
0.000628581
0.00064691
0.000640891
0.000630137
0.000596204
0.000618086
0.000624096
0.000641213
0.000635693
0.000602798
VECTORS momentum double
-0.0855223 -0.293219 0 
0.0472526 -0.262137 0 
-0.00198816 -0.355865 0 
-0.101318 -0.199391 0 
-0.187484 -0.485088 0 
-0.0965559 -0.178187 0 
-0.107619 -0.395297 0 
-0.234086 -0.297952 0 
-0.505697 -0.320047 0 
-0.123827 -0.175882 0 
-0.312931 -0.0536521 0 
-0.324149 0.0597696 0 
-0.326888 -0.0286506 0 
-0.105556 -0.116645 0 
-0.255821 0.139464 0 
-0.305139 0.035448 0 
0.0284233 -0.450286 0 
-0.0659123 -0.191039 0 
0.168014 -0.103171 0 
-0.254167 -0.0618247 0 
0.160117 -0.173041 0 
-0.0231483 -0.243152 0 
-0.237936 -0.285848 0 
-0.394344 -0.257317 0 
-0.481678 0.0344047 0 
-0.451938 -0.18261 0 
-0.65055 0.0460099 0 
-0.537068 -0.256185 0 
-0.205037 -0.119289 0 
0.0406714 0.0169871 0 
-0.462244 -0.0472499 0 
-0.228547 0.0857667 0 
0.178774 -0.513815 0 
0.078655 0.00151071 0 
-0.014981 0.143925 0 
-0.00430712 -0.106799 0 
-0.198738 -0.293481 0 
-0.0737818 -0.379434 0 
-0.370058 0.0931548 0 
-0.291688 -0.140746 0 
-0.264235 0.0841932 0 
-0.13127 -0.306322 0 
-0.380317 0.19111 0 
-0.481232 -0.0796908 0 
-0.296861 -0.106871 0 
-0.090443 -0.213577 0 
-0.589549 -0.268056 0 
-0.29054 -0.20446 0 
0.25842 -0.0726368 0 
-0.074018 -0.282104 0 
0.141121 0.270613 0 
0.196849 0.120939 0 
-0.255866 0.0564523 0 
-0.214191 -0.304269 0 
-0.259804 0.159971 0 
-0.435572 0.113104 0 
-0.356158 -0.288778 0 
-0.319113 -0.187349 0 
0.0749458 0.0612294 0 
-0.0764868 -0.0776653 0 
-0.280926 -0.15746 0 
-0.368836 -0.00187375 0 
-0.672675 -0.0900249 0 
-0.259146 -0.182805 0 
VECTORS body_force double
0 -9.81 0 
0 -9.81 0 
0 -9.81 0 
0 -9.81 0 
0 -9.81 0 
0 -9.81 0 
0 -9.81 0 
0 -9.81 0 
0 -9.81 0 
0 -9.81 0 
0 -9.81 0 
0 -9.81 0 
0 -9.81 0 
0 -9.81 0 
0 -9.81 0 
0 -9.81 0 
0 -9.81 0 
0 -9.81 0 
0 -9.81 0 
0 -9.81 0 
0 -9.81 0 
0 -9.81 0 
0 -9.81 0 
0 -9.81 0 
0 -9.81 0 
0 -9.81 0 
0 -9.81 0 
0 -9.81 0 
0 -9.81 0 
0 -9.81 0 
0 -9.81 0 
0 -9.81 0 
0 -9.81 0 
0 -9.81 0 
0 -9.81 0 
0 -9.81 0 
0 -9.81 0 
0 -9.81 0 
0 -9.81 0 
0 -9.81 0 
0 -9.81 0 
0 -9.81 0 
0 -9.81 0 
0 -9.81 0 
0 -9.81 0 
0 -9.81 0 
0 -9.81 0 
0 -9.81 0 
0 -9.81 0 
0 -9.81 0 
0 -9.81 0 
0 -9.81 0 
0 -9.81 0 
0 -9.81 0 
0 -9.81 0 
0 -9.81 0 
0 -9.81 0 
0 -9.81 0 
0 -9.81 0 
0 -9.81 0 
0 -9.81 0 
0 -9.81 0 
0 -9.81 0 
0 -9.81 0 
TENSORS cauchy_stress double
922.486 284.266 0
284.266 -1926.6 0
0 0 0

-675.606 -2276.82 0
-2276.82 96.3889 0
0 0 0

2123.71 249.271 0
249.271 -168.196 0
0 0 0

1611.33 -3353.09 0
-3353.09 -271.35 0
0 0 0

560.026 -458.887 0
-458.887 4459.29 0
0 0 0

1826.96 410.643 0
410.643 87.2463 0
0 0 0

1162.57 1102.45 0
1102.45 1250.05 0
0 0 0

794.458 -686.295 0
-686.295 -3758.71 0
0 0 0

-3272.81 3849.47 0
3849.47 2781.26 0
0 0 0

326.255 308.51 0
308.51 -2809.75 0
0 0 0

2128.5 3100.38 0
3100.38 -2173.76 0
0 0 0

-875.329 -3232.9 0
-3232.9 137.332 0
0 0 0

370.905 -1374.79 0
-1374.79 -7260.05 0
0 0 0

1251.8 1811.04 0
1811.04 8278.72 0
0 0 0

6671.47 -140.633 0
-140.633 6176.91 0
0 0 0

6328.28 5766.06 0
5766.06 -6644.64 0
0 0 0

266.27 4164.44 0
4164.44 -6184.71 0
0 0 0

2605.9 -597.067 0
-597.067 7168.75 0
0 0 0

-740.316 -876.471 0
-876.471 -2016.27 0
0 0 0

961.69 -2416.75 0
-2416.75 -3582.58 0
0 0 0

-4147.3 -602.522 0
-602.522 -10832 0
0 0 0

4722.91 1371.49 0
1371.49 1688.76 0
0 0 0

4346.93 -2646.94 0
-2646.94 7316.6 0
0 0 0

717.209 2226.74 0
2226.74 -2064.84 0
0 0 0

1614.82 1486.68 0
1486.68 -1742.79 0
0 0 0

520.389 -3074.12 0
-3074.12 -3056.65 0
0 0 0

-820.081 -2134.63 0
-2134.63 -1222.51 0
0 0 0

3027.73 1402.52 0
1402.52 4188.57 0
0 0 0

-5259.43 -3031.62 0
-3031.62 -3892.33 0
0 0 0

-3418.36 -3878.14 0
-3878.14 760.45 0
0 0 0

-1263.52 -1428.17 0
-1428.17 -4793.12 0
0 0 0

3366.05 -1277.51 0
-1277.51 1839.48 0
0 0 0

-118.52 2198.27 0
2198.27 1845.14 0
0 0 0

1143.78 398.55 0
398.55 -1778.78 0
0 0 0

836.847 -3595.33 0
-3595.33 4539.16 0
0 0 0

-1064.87 -2948.47 0
-2948.47 2247.87 0
0 0 0

8685.8 -8.6885 0
-8.6885 4764.76 0
0 0 0

1756.58 4731.47 0
4731.47 -4356.16 0
0 0 0

282.194 -660.531 0
-660.531 -1619.49 0
0 0 0

1573.13 -1763.77 0
-1763.77 -3213.29 0
0 0 0

2991.53 -1133.58 0
-1133.58 2284.66 0
0 0 0

6319.94 3790.06 0
3790.06 -357.6 0
0 0 0

-275.237 1322 0
1322 -4386.47 0
0 0 0

-2082.48 -3848.52 0
-3848.52 441.822 0
0 0 0

-1048.26 805.34 0
805.34 -236.85 0
0 0 0

-4369.04 4593.84 0
4593.84 1479.08 0
0 0 0

405.838 -2224.85 0
-2224.85 1781.18 0
0 0 0

-2061.22 5189.34 0
5189.34 2475.78 0
0 0 0

-1945.03 -389.986 0
-389.986 2238.96 0
0 0 0

-1766.2 328.015 0
328.015 -1447.11 0
0 0 0

894.733 -2060.68 0
-2060.68 -5966.48 0
0 0 0

-1701.7 -841.618 0
-841.618 494.831 0
0 0 0

11972.1 2726.26 0
2726.26 -660.497 0
0 0 0

7056.77 -3333.29 0
-3333.29 4777.27 0
0 0 0

5418.93 6524.63 0
6524.63 -4320.34 0
0 0 0

3941.4 -4171.72 0
-4171.72 2684.8 0
0 0 0

-562.72 5454.29 0
5454.29 5391 0
0 0 0

1238.33 1644.64 0
1644.64 335.96 0
0 0 0

-7651.77 3826.58 0
3826.58 -1419.03 0
0 0 0

-1295.55 -658.405 0
-658.405 -843.626 0
0 0 0

-440.943 1219.4 0
1219.4 162.63 0
0 0 0

2348.18 2679.03 0
2679.03 2576.92 0
0 0 0

3987.96 -1087.36 0
-1087.36 -725.635 0
0 0 0

-934.968 1865.35 0
1865.35 -6020.81 0
0 0 0

TENSORS velocity_gradient double
-0.663301 1.42685 0
1.96823 0.553608 0
0 0 0

-0.0281497 1.48968 0
1.03122 0.460918 0
0 0 0

-1.43106 2.61564 0
-2.24662 -0.317114 0
0 0 0

-0.0666991 2.66043 0
-2.82341 -0.33605 0
0 0 0

0.820124 5.57966 0
-0.541987 -2.20394 0
0 0 0

1.67657 5.48097 0
-2.27971 -2.0037 0
0 0 0

0.614175 6.00025 0
-2.86498 -2.65729 0
0 0 0

0.742913 5.99564 0
-2.51282 -2.6699 0
0 0 0

2.02224 0.48517 0
-3.84997 -5.34897 0
0 0 0

2.06495 0.354403 0
-5.27193 -5.18347 0
0 0 0

1.56665 1.35725 0
-1.177 -4.43533 0
0 0 0

2.77847 1.43409 0
0.713891 -4.31543 0
0 0 0

0.939288 -1.97547 0
-5.42079 -1.31008 0
0 0 0

-0.758565 -1.93461 0
-5.16632 -1.3162 0
0 0 0

1.55042 -4.15664 0
0.57357 -1.9604 0
0 0 0

-0.588192 -4.33402 0
-0.332077 -1.78919 0
0 0 0

-1.33866 4.18442 0
-2.29339 -0.977092 0
0 0 0

0.00386529 4.09945 0
-2.85325 -0.944402 0
0 0 0

-1.04802 5.52923 0
-2.89543 -1.09362 0
0 0 0

0.363904 5.56756 0
-2.86049 -1.09267 0
0 0 0

0.60926 6.12331 0
-2.87843 -2.32064 0
0 0 0

0.737353 6.12591 0
-2.52803 -2.31354 0
0 0 0

0.89368 5.84921 0
-2.49991 -1.72614 0
0 0 0

0.395752 5.84757 0
-1.74883 -1.72367 0
0 0 0

1.40025 2.55902 0
-1.13142 -2.5106 0
0 0 0

2.55046 2.54962 0
0.60416 -2.55042 0
0 0 0

-0.0127809 2.53291 0
-0.582304 -0.882103 0
0 0 0

-0.394506 2.53744 0
1.01995 -0.90113 0
0 0 0

1.75547 -6.11809 0
0.667468 -2.79124 0
0 0 0

-0.286433 -6.13417 0
0.145758 -2.77413 0
0 0 0

0.278612 -5.59911 0
2.65377 -1.75582 0
0 0 0

1.60584 -5.525 0
4.256 -1.66636 0
0 0 0

-1.05526 6.96546 0
-3.0808 -1.03522 0
0 0 0

0.372167 6.95197 0
-2.91665 -1.04366 0
0 0 0

-0.799772 7.82543 0
-5.42721 0.0458981 0
0 0 0

-0.099035 7.77023 0
-4.03783 -0.0635576 0
0 0 0

0.901078 5.35571 0
-2.51107 -0.981735 0
0 0 0

0.415671 5.35825 0
-1.77888 -0.985568 0
0 0 0

0.00404818 4.87428 0
-2.71499 0.248972 0
0 0 0

-0.49363 4.86617 0
-1.27307 0.272473 0
0 0 0

-0.100015 2.17888 0
-0.566043 0.638828 0
0 0 0

-0.395201 2.17741 0
0.767513 0.652882 0
0 0 0

-0.625247 2.24314 0
-0.506574 1.12527 0
0 0 0

-0.437713 2.25255 0
-0.304956 1.13538 0
0 0 0

0.352378 -4.14139 0
2.27068 -0.0909804 0
0 0 0

1.9924 -4.05215 0
3.08188 -0.0684845 0
0 0 0

0.855094 -2.23535 0
-0.668578 -0.334492 0
0 0 0

3.02674 -2.18431 0
-1.49465 -0.353907 0
0 0 0

-0.9512 8.31971 0
-5.80716 1.17036 0
0 0 0

-0.339377 8.33197 0
-4.26702 1.11181 0
0 0 0

-1.63502 7.56537 0
-7.06164 1.93537 0
0 0 0

-2.68378 7.65376 0
-6.42408 1.88163 0
0 0 0

-0.385853 4.39781 0
-3.20994 1.67743 0
0 0 0

-0.865562 4.39639 0
-2.17514 1.69998 0
0 0 0

-2.98028 4.61867 0
-5.9709 2.28012 0
0 0 0

-2.61033 4.59744 0
-5.62426 2.26022 0
0 0 0

-0.927371 2.44285 0
-1.28144 1.39093 0
0 0 0

-0.695152 2.44217 0
-0.810426 1.38873 0
0 0 0

-2.24285 2.73071 0
-4.66492 2.53453 0
0 0 0

-1.9047 2.75635 0
-3.1723 2.6477 0
0 0 0

0.5998 -0.179571 0
-0.676081 -1.01479 0
0 0 0

2.66999 -0.172748 0
-1.00205 -1.00997 0
0 0 0

-1.1185 1.18116 0
-0.71154 1.36557 0
0 0 0

-0.105036 1.17645 0
2.14901 1.35227 0
0 0 0

SCALARS active double 1
LOOKUP_TABLE default
1
1
1
1
1
1
1
1
1
1
1
1
1
1
1
1
1
1
1
1
1
1
1
1
1
1
1
1
1
1
1
1
1
1
1
1
1
1
1
1
1
1
1
1
1
1
1
1
1
1
1
1
1
1
1
1
1
1
1
1
1
1
1
1
SCALARS extent double 1
LOOKUP_TABLE default
0.0125
0.0125
0.0125
0.0125
0.0125
0.0125
0.0125
0.0125
0.0125
0.0125
0.0125
0.0125
0.0125
0.0125
0.0125
0.0125
0.0125
0.0125
0.0125
0.0125
0.0125
0.0125
0.0125
0.0125
0.0125
0.0125
0.0125
0.0125
0.0125
0.0125
0.0125
0.0125
0.0125
0.0125
0.0125
0.0125
0.0125
0.0125
0.0125
0.0125
0.0125
0.0125
0.0125
0.0125
0.0125
0.0125
0.0125
0.0125
0.0125
0.0125
0.0125
0.0125
0.0125
0.0125
0.0125
0.0125
0.0125
0.0125
0.0125
0.0125
0.0125
0.0125
0.0125
0.0125
SCALARS pressure double 1
LOOKUP_TABLE default
502.059
289.608
-977.759
-669.991
-2509.66
-957.101
-1206.31
1482.13
245.773
1241.75
22.6287
368.998
3444.57
-4765.26
-6424.19
158.181
2959.22
-4887.33
1378.29
1310.45
7489.64
-3205.83
-5831.76
673.817
63.9885
1268.13
1021.29
-3608.15
4575.88
1328.95
3028.32
-2602.77
-863.31
317.501
-2688
-591.498
-6725.28
1299.79
668.647
820.081
-2638.1
-2981.17
2330.86
820.331
642.553
1444.98
-1093.51
-207.283
-146.964
1606.65
2535.87
603.433
-5655.82
-5917.02
-549.298
-3313.1
-2414.14
-787.144
4535.4
1069.59
139.157
-2462.55
-1631.16
3477.89
SCALARS density double 1
LOOKUP_TABLE default
1005.24
1003.02
989.883
993.056
974.237
990.096
987.533
1015.53
1002.56
1013
1000.24
1003.84
1036.47
951.649
935.371
1001.65
1031.25
950.442
1014.44
1013.72
1081.01
967.209
941.152
1007.03
1000.67
1013.28
1010.68
963.171
1048.74
1013.92
1032
973.294
991.062
1003.31
972.432
993.867
932.447
1013.61
1006.98
1008.57
972.937
969.472
1024.54
1008.57
1006.7
1015.14
988.692
997.847
998.473
1016.85
1026.72
1006.3
942.876
940.318
994.304
966.131
975.205
991.847
1048.3
1011.19
1001.45
974.715
983.179
1036.83
