# vtk DataFile Version 3.0
Frame: 11, Time: 0.187
ASCII
DATASET UNSTRUCTURED_GRID
POINTS 64 double
0.3217 0.0235864 0 
0.299466 0.0309283 0 
0.338395 0.0352993 0 
0.314572 0.0464061 0 
0.276698 0.0381724 0 
0.255564 0.0435062 0 
0.291284 0.0568874 0 
0.267866 0.0661285 0 
0.233144 0.0480033 0 
0.209689 0.0551226 0 
0.244451 0.0722131 0 
0.2204 0.0785839 0 
0.18657 0.0648276 0 
0.163948 0.076571 0 
0.197676 0.087872 0 
0.175238 0.0986214 0 
0.353351 0.0485377 0 
0.329985 0.0636026 0 
0.367164 0.064499 0 
0.344581 0.0795406 0 
0.307597 0.0752219 0 
0.283485 0.0856155 0 
0.321931 0.0935997 0 
0.297055 0.103809 0 
0.257902 0.0933423 0 
0.233442 0.100841 0 
0.270741 0.113235 0 
0.246303 0.122047 0 
0.21025 0.110461 0 
0.188604 0.12199 0 
0.223421 0.132067 0 
0.201777 0.14399 0 
0.379473 0.0843662 0 
0.357895 0.0979853 0 
0.392519 0.105774 0 
0.370877 0.118693 0 
0.334897 0.112078 0 
0.309878 0.123313 0 
0.348563 0.13122 0 
0.323935 0.142712 0 
0.284749 0.132179 0 
0.259784 0.142518 0 
0.298816 0.15253 0 
0.275007 0.162897 0 
0.236817 0.153355 0 
0.215747 0.16545 0 
0.252164 0.174177 0 
0.230547 0.186169 0 
0.405988 0.126463 0 
0.383474 0.138958 0 
0.418251 0.147663 0 
0.395197 0.160504 0 
0.360834 0.151479 0 
0.335887 0.163358 0 
0.372028 0.174084 0 
0.347191 0.18431 0 
0.312113 0.173417 0 
0.288766 0.182904 0 
0.323474 0.195223 0 
0.300621 0.204877 0 
0.265983 0.194578 0 
0.244193 0.206798 0 
0.279774 0.215885 0 
0.257881 0.228089 0 
CELLS 64 128
1 0
1 1
1 2
1 3
1 4
1 5
1 6
1 7
1 8
1 9
1 10
1 11
1 12
1 13
1 14
1 15
1 16
1 17
1 18
1 19
1 20
1 21
1 22
1 23
1 24
1 25
1 26
1 27
1 28
1 29
1 30
1 31
1 32
1 33
1 34
1 35
1 36
1 37
1 38
1 39
1 40
1 41
1 42
1 43
1 44
1 45
1 46
1 47
1 48
1 49
1 50
1 51
1 52
1 53
1 54
1 55
1 56
1 57
1 58
1 59
1 60
1 61
1 62
1 63
CELL_TYPES 64
1
1
1
1
1
1
1
1
1
1
1
1
1
1
1
1
1
1
1
1
1
1
1
1
1
1
1
1
1
1
1
1
1
1
1
1
1
1
1
1
1
1
1
1
1
1
1
1
1
1
1
1
1
1
1
1
1
1
1
1
1
1
1
1
POINT_DATA 64
VECTORS displacement double
0.1092 -0.188914 0 
0.0869663 -0.206572 0 
0.100895 -0.177201 0 
0.0770719 -0.191094 0 
0.0641984 -0.224328 0 
0.0430639 -0.243994 0 
0.0537837 -0.205613 0 
0.0303661 -0.221372 0 
0.0206441 -0.264497 0 
-0.0028107 -0.282377 0 
0.00695098 -0.240287 0 
-0.0170996 -0.258916 0 
-0.0259302 -0.297672 0 
-0.0485517 -0.310929 0 
-0.0398238 -0.274628 0 
-0.0622618 -0.288879 0 
0.0908508 -0.163962 0 
0.0674853 -0.173897 0 
0.0796642 -0.148001 0 
0.0570811 -0.157959 0 
0.0450969 -0.187278 0 
0.0209853 -0.201885 0 
0.034431 -0.1689 0 
0.00955507 -0.183691 0 
-0.00459776 -0.219158 0 
-0.0290584 -0.236659 0 
-0.0167586 -0.199265 0 
-0.0411972 -0.215453 0 
-0.0522501 -0.252039 0 
-0.0738964 -0.26551 0 
-0.064079 -0.230433 0 
-0.0857232 -0.24351 0 
0.0669729 -0.128134 0 
0.045395 -0.139515 0 
0.0550189 -0.106726 0 
0.0333766 -0.118807 0 
0.0223969 -0.150422 0 
-0.00262155 -0.164187 0 
0.0110634 -0.13128 0 
-0.0135654 -0.144788 0 
-0.0277508 -0.180321 0 
-0.0527156 -0.194982 0 
-0.0386845 -0.15997 0 
-0.062493 -0.174603 0 
-0.0756834 -0.209145 0 
-0.0967533 -0.22205 0 
-0.085336 -0.188323 0 
-0.106953 -0.201331 0 
0.0434881 -0.0860374 0 
0.0209737 -0.0985423 0 
0.0307506 -0.0648366 0 
0.00769652 -0.0769958 0 
-0.00166572 -0.111021 0 
-0.0266132 -0.124142 0 
-0.0154722 -0.0884158 0 
-0.0403093 -0.10319 0 
-0.0503872 -0.139083 0 
-0.0737341 -0.154596 0 
-0.0640262 -0.117277 0 
-0.0868792 -0.132623 0 
-0.0965168 -0.167922 0 
-0.118307 -0.180702 0 
-0.107726 -0.146615 0 
-0.129619 -0.159411 0 
VECTORS velocity double
-0.236926 -0.24143 0 
-1.00166 -0.222109 0 
-0.366787 1.04697 0 
-1.27951 0.844652 0 
-0.896469 0.345636 0 
-0.475465 0.432059 0 
-0.971649 0.622204 0 
-0.606509 1.12969 0 
-0.338152 0.760656 0 
-0.172984 0.774057 0 
-0.627774 1.44528 0 
-0.519387 1.55673 0 
0.389989 0.940186 0 
0.275035 0.734562 0 
-0.311479 1.56078 0 
-1.03344 0.968112 0 
-0.813695 1.16267 0 
-1.3905 0.991092 0 
-1.51809 1.86791 0 
-1.63615 1.35926 0 
-0.978413 0.859993 0 
-0.653886 0.764566 0 
-1.29385 1.18388 0 
-1.09823 0.934499 0 
-0.565911 0.859876 0 
-0.446581 0.917655 0 
-0.958557 1.00425 0 
-1.12919 1.06225 0 
-0.344888 1.21513 0 
-0.828428 1.05233 0 
-0.907397 1.11793 0 
-0.938762 1.27748 0 
-1.71459 2.48901 0 
-1.79685 1.86092 0 
-1.90312 2.34118 0 
-1.83601 2.10736 0 
-1.57253 1.54956 0 
-1.62506 1.39939 0 
-1.82886 2.04397 0 
-1.99384 2.15377 0 
-1.65075 1.30022 0 
-1.70577 1.20384 0 
-1.91412 1.85697 0 
-1.65212 1.52822 0 
-1.21741 1.16342 0 
-1.5969 1.35189 0 
-1.00009 1.79993 0 
-1.58803 1.626 0 
-1.75775 2.40058 0 
-1.73338 1.86388 0 
-2.09694 2.66098 0 
-2.20711 2.33692 0 
-1.87235 1.75132 0 
-1.8004 1.85379 0 
-2.44285 2.25983 0 
-2.48253 2.12398 0 
-1.55368 1.61886 0 
-1.76038 1.18796 0 
-2.25728 2.15198 0 
-2.50047 1.48498 0 
-1.71897 1.83997 0 
-2.30116 1.12368 0 
-2.31068 2.0357 0 
-2.48994 1.7755 0 
SCALARS mass double 1
LOOKUP_TABLE default
0.625
0.625
0.625
0.625
0.625
0.625
0.625
0.625
0.625
0.625
0.625
0.625
0.625
0.625
0.625
0.625
0.625
0.625
0.625
0.625
0.625
0.625
0.625
0.625
0.625
0.625
0.625
0.625
0.625
0.625
0.625
0.625
0.625
0.625
0.625
0.625
0.625
0.625
0.625
0.625
0.625
0.625
0.625
0.625
0.625
0.625
0.625
0.625
0.625
0.625
0.625
0.625
0.625
0.625
0.625
0.625
0.625
0.625
0.625
0.625
0.625
0.625
0.625
0.625
SCALARS volume double 1
LOOKUP_TABLE default
0.000335548
0.000432262
0.000468356
0.000576307
0.000472037
0.000512615
0.0005902
0.000582135
0.000626872
0.000634519
0.000601356
0.000621101
0.000622946
0.000627875
0.000631
0.000643424
0.000566572
0.000561042
0.000599175
0.000587042
0.000582801
0.000618453
0.000592348
0.000607789
0.000596089
0.000617331
0.000601607
0.000598641
0.000630866
0.000641548
0.000622522
0.000616534
0.000573035
0.000655133
0.00061773
0.000606897
0.000606157
0.000623912
0.00061417
0.000630653
0.000641013
0.00064461
0.000643203
0.000619561
0.000626654
0.000657884
0.000622768
0.000621691
0.000626119
0.000608865
0.000622771
0.000646938
0.000651155
0.000629656
0.000647288
0.00064701
0.000639217
0.000622965
0.000615724
0.000596674
0.000605535
0.000611792
0.000620401
0.000625342
VECTORS momentum double
-0.148079 -0.150894 0 
-0.626038 -0.138818 0 
-0.229242 0.654355 0 
-0.799691 0.527908 0 
-0.560293 0.216023 0 
-0.297166 0.270037 0 
-0.607281 0.388878 0 
-0.379068 0.706056 0 
-0.211345 0.47541 0 
-0.108115 0.483786 0 
-0.392359 0.903297 0 
-0.324617 0.972958 0 
0.243743 0.587616 0 
0.171897 0.459101 0 
-0.194674 0.975486 0 
-0.645902 0.60507 0 
-0.508559 0.726671 0 
-0.86906 0.619433 0 
-0.948807 1.16744 0 
-1.02259 0.84954 0 
-0.611508 0.537496 0 
-0.408679 0.477854 0 
-0.808657 0.739926 0 
-0.686396 0.584062 0 
-0.353694 0.537423 0 
-0.279113 0.573535 0 
-0.599098 0.627658 0 
-0.705746 0.663907 0 
-0.215555 0.759454 0 
-0.517768 0.657709 0 
-0.567123 0.698705 0 
-0.586726 0.798427 0 
-1.07162 1.55563 0 
-1.12303 1.16307 0 
-1.18945 1.46324 0 
-1.14751 1.3171 0 
-0.982832 0.968476 0 
-1.01566 0.874619 0 
-1.14304 1.27748 0 
-1.24615 1.3461 0 
-1.03172 0.812638 0 
-1.06611 0.752401 0 
-1.19632 1.16061 0 
-1.03258 0.955139 0 
-0.76088 0.727137 0 
-0.998065 0.844932 0 
-0.625055 1.12495 0 
-0.992517 1.01625 0 
-1.0986 1.50036 0 
-1.08336 1.16492 0 
-1.31059 1.66311 0 
-1.37944 1.46058 0 
-1.17022 1.09458 0 
-1.12525 1.15862 0 
-1.52678 1.41239 0 
-1.55158 1.32749 0 
-0.971048 1.01179 0 
-1.10024 0.742475 0 
-1.4108 1.34499 0 
-1.56279 0.928113 0 
-1.07436 1.14998 0 
-1.43822 0.7023 0 
-1.44417 1.27231 0 
-1.55621 1.10969 0 
VECTORS body_force double
0 -9.81 0 
0 -9.81 0 
0 -9.81 0 
0 -9.81 0 
0 -9.81 0 
0 -9.81 0 
0 -9.81 0 
0 -9.81 0 
0 -9.81 0 
0 -9.81 0 
0 -9.81 0 
0 -9.81 0 
0 -9.81 0 
0 -9.81 0 
0 -9.81 0 
0 -9.81 0 
0 -9.81 0 
0 -9.81 0 
0 -9.81 0 
0 -9.81 0 
0 -9.81 0 
0 -9.81 0 
0 -9.81 0 
0 -9.81 0 
0 -9.81 0 
0 -9.81 0 
0 -9.81 0 
0 -9.81 0 
0 -9.81 0 
0 -9.81 0 
0 -9.81 0 
0 -9.81 0 
0 -9.81 0 
0 -9.81 0 
0 -9.81 0 
0 -9.81 0 
0 -9.81 0 
0 -9.81 0 
0 -9.81 0 
0 -9.81 0 
0 -9.81 0 
0 -9.81 0 
0 -9.81 0 
0 -9.81 0 
0 -9.81 0 
0 -9.81 0 
0 -9.81 0 
0 -9.81 0 
0 -9.81 0 
0 -9.81 0 
0 -9.81 0 
0 -9.81 0 
0 -9.81 0 
0 -9.81 0 
0 -9.81 0 
0 -9.81 0 
0 -9.81 0 
0 -9.81 0 
0 -9.81 0 
0 -9.81 0 
0 -9.81 0 
0 -9.81 0 
0 -9.81 0 
0 -9.81 0 
TENSORS cauchy_stress double
-31996.3 7844.06 0
7844.06 -87616.8 0
0 0 0

-13379.4 3164.97 0
3164.97 -57528.4 0
0 0 0

-10129.8 -6854.89 0
-6854.89 -45355.4 0
0 0 0

2877.37 2430.63 0
2430.63 -18475.7 0
0 0 0

-20251.8 9705.87 0
9705.87 -33728 0
0 0 0

-17104.1 8681.13 0
8681.13 -21016.2 0
0 0 0

4807.06 -29.6257 0
-29.6257 -15824.4 0
0 0 0

2176.51 11679 0
11679 -15839.8 0
0 0 0

-179.747 9327.82 0
9327.82 754.872 0
0 0 0

1576.48 -10.4522 0
-10.4522 1330.39 0
0 0 0

2559.07 8188.24 0
8188.24 -9975.42 0
0 0 0

1033.48 4868.54 0
4868.54 -2236.94 0
0 0 0

191.962 2291.15 0
2291.15 -825.137 0
0 0 0

813.189 -2363.15 0
-2363.15 69.2657 0
0 0 0

1888.86 2355.58 0
2355.58 -51.4031 0
0 0 0

2083.26 678.591 0
678.591 3503.81 0
0 0 0

-990.017 -8157.2 0
-8157.2 -17884.3 0
0 0 0

2024.4 -6347.96 0
-6347.96 -22785.2 0
0 0 0

1194.64 -9092.87 0
-9092.87 -9309.65 0
0 0 0

228.313 -4991.91 0
-4991.91 -12277.4 0
0 0 0

2715 4695.39 0
4695.39 -16158.6 0
0 0 0

13012.1 583.432 0
583.432 -15037 0
0 0 0

1543.64 -3562.24 0
-3562.24 -11862.4 0
0 0 0

9338.74 -40.2645 0
-40.2645 -14708.6 0
0 0 0

5680.83 6737.71 0
6737.71 -14788.7 0
0 0 0

6219.19 5982.29 0
5982.29 -8593.36 0
0 0 0

9101.32 1607.64 0
1607.64 -16437.2 0
0 0 0

411.215 2687.73 0
2687.73 -8697.81 0
0 0 0

3746.68 2908.1 0
2908.1 -1950.11 0
0 0 0

747.894 3068.48 0
3068.48 4277.45 0
0 0 0

3315.88 2703.22 0
2703.22 -4079.73 0
0 0 0

-2108.86 -56.3345 0
-56.3345 -513.973 0
0 0 0

-12285.4 932.979 0
932.979 -4407.94 0
0 0 0

8130.02 -4234.82 0
-4234.82 925.143 0
0 0 0

-1332.05 -469.497 0
-469.497 -917.877 0
0 0 0

986.088 755.025 0
755.025 -6638.4 0
0 0 0

2545.29 -4339.5 0
-4339.5 -8432.39 0
0 0 0

11254.8 3292.1 0
3292.1 -11589.9 0
0 0 0

3275.41 -2692.07 0
-2692.07 -6636.89 0
0 0 0

10527.2 127.941 0
127.941 -8795.52 0
0 0 0

12255 1733.43 0
1733.43 -7390.06 0
0 0 0

10341.3 3393.15 0
3393.15 -4400.12 0
0 0 0

12882.5 2078.37 0
2078.37 -7361.64 0
0 0 0

6472.05 2949.89 0
2949.89 -8152.75 0
0 0 0

4301.09 2584.8 0
2584.8 -3792.9 0
0 0 0

3745.12 3823.31 0
3823.31 6115.84 0
0 0 0

4851.82 3640.62 0
3640.62 -5539.7 0
0 0 0

2899.37 -39.6926 0
-39.6926 -3920.17 0
0 0 0

-1287.67 -2867.5 0
-2867.5 1631.67 0
0 0 0

-269.667 -822.244 0
-822.244 -4760.24 0
0 0 0

-1180.3 -578.221 0
-578.221 493.173 0
0 0 0

5520.86 -3298.98 0
-3298.98 1113.54 0
0 0 0

6443.98 -2113.21 0
-2113.21 1439.99 0
0 0 0

4737.86 -2582.93 0
-2582.93 -3310.52 0
0 0 0

5161.79 -2222.55 0
-2222.55 1576.73 0
0 0 0

6415.42 -2135.51 0
-2135.51 240.419 0
0 0 0

5920.63 3244.47 0
3244.47 -1595.05 0
0 0 0

2852.44 399.543 0
399.543 -3479.49 0
0 0 0

2935.34 -1082.55 0
-1082.55 -5810.78 0
0 0 0

-1650.42 1864.04 0
1864.04 -7268.9 0
0 0 0

-900.815 -572.06 0
-572.06 -5183.68 0
0 0 0

-1738.17 549.045 0
549.045 -2369.31 0
0 0 0

-1634.97 1422.43 0
1422.43 214.734 0
0 0 0

-817.998 -1186.31 0
-1186.31 923.107 0
0 0 0

TENSORS velocity_gradient double
-1.53463 -19.8648 0
5.55161 16.9942 0
0 0 0

-2.99686 -18.2002 0
2.38487 12.7028 0
0 0 0

-2.28759 -20.987 0
8.27548 21.0539 0
0 0 0

-3.04822 -17.5702 0
10.7266 14.5525 0
0 0 0

-4.9076 -15.4377 0
-3.17635 13.6057 0
0 0 0

-5.62084 -12.6731 0
-3.62014 15.3924 0
0 0 0

-6.93345 -5.71807 0
-3.66692 9.06938 0
0 0 0

-7.5475 -4.09685 0
-2.86961 6.98692 0
0 0 0

-9.18399 -7.46295 0
-4.34066 13.9376 0
0 0 0

-9.49064 -6.90063 0
-4.51476 6.22484 0
0 0 0

-7.82477 -3.54412 0
-3.70085 5.14035 0
0 0 0

-7.07196 -6.27794 0
-3.56663 3.97512 0
0 0 0

-4.31809 -9.28337 0
4.39783 2.69514 0
0 0 0

-3.83531 -10.2066 0
4.66331 2.18743 0
0 0 0

-4.28161 -8.65228 0
2.12944 3.00356 0
0 0 0

-2.92551 -10.4755 0
5.09653 2.21714 0
0 0 0

-6.75965 -18.9436 0
15.6351 20.9031 0
0 0 0

-4.43994 -9.02417 0
12.2199 10.3722 0
0 0 0

-7.03541 -8.91458 0
16.2707 7.71363 0
0 0 0

-5.79525 -10.1574 0
12.7504 10.4677 0
0 0 0

-5.50451 -6.99871 0
12.4562 9.92257 0
0 0 0

-8.85341 -5.16469 0
-1.16415 8.38147 0
0 0 0

-7.13283 -8.3153 0
12.8177 10.2148 0
0 0 0

-8.8479 -8.82603 0
4.83042 9.8386 0
0 0 0

-9.36917 -3.42628 0
-0.490587 6.11118 0
0 0 0

-4.80117 -7.70322 0
-2.43412 4.35419 0
0 0 0

-9.65186 -10.5061 0
1.49034 7.6611 0
0 0 0

-5.82339 -10.9021 0
0.0286948 5.14893 0
0 0 0

-4.40868 -10.9827 0
-1.80053 2.31348 0
0 0 0

-1.844 -11.5074 0
5.02639 1.5733 0
0 0 0

-4.37978 -10.9646 0
-0.151785 3.34342 0
0 0 0

-3.37356 -11.0742 0
1.88948 1.8394 0
0 0 0

-5.1177 -7.68395 0
13.0636 5.65557 0
0 0 0

-3.84482 -9.16309 0
10.9059 8.12511 0
0 0 0

-3.21131 -5.59352 0
9.96117 1.52619 0
0 0 0

-2.82559 -6.12152 0
8.83653 2.71096 0
0 0 0

-7.187 -7.72172 0
11.6806 6.20418 0
0 0 0

-6.48699 -9.25954 0
10.2712 9.30026 0
0 0 0

-4.10141 -6.96105 0
8.53582 4.63305 0
0 0 0

-5.316 -8.38261 0
7.91367 7.53475 0
0 0 0

-9.28735 -10.2273 0
3.51705 9.21083 0
0 0 0

-9.08596 -10.715 0
4.63675 6.4993 0
0 0 0

-6.50936 -8.12347 0
6.16936 5.16905 0
0 0 0

-7.53832 -9.47401 0
4.72725 3.16675 0
0 0 0

-4.35993 -12.0986 0
1.37984 4.48275 0
0 0 0

-4.36439 -12.6699 0
2.08864 3.37639 0
0 0 0

-5.81042 -12.088 0
3.60846 4.73656 0
0 0 0

-4.37944 -12.6809 0
3.21925 4.20662 0
0 0 0

0.848105 -4.86439 0
8.33513 0.121762 0
0 0 0

-2.14028 -5.68729 0
7.21588 1.68408 0
0 0 0

1.67818 -4.4795 0
7.34492 -0.522217 0
0 0 0

-0.724039 -5.10689 0
6.15215 -0.821361 0
0 0 0

-1.81506 -5.78499 0
6.2875 2.24777 0
0 0 0

-4.37387 -5.36164 0
6.7989 1.38403 0
0 0 0

-1.75518 -5.01893 0
5.07909 0.199492 0
0 0 0

-2.82877 -5.07473 0
5.80507 1.24513 0
0 0 0

-4.02667 -6.17172 0
6.79535 1.39231 0
0 0 0

-5.13279 -7.77918 0
3.22027 2.10499 0
0 0 0

-3.2886 -5.77943 0
6.7878 1.3883 0
0 0 0

-2.98188 -7.52512 0
5.47248 5.10795 0
0 0 0

-3.71801 -10.5327 0
2.33395 3.82996 0
0 0 0

-3.32319 -11.22 0
3.55484 2.16551 0
0 0 0

-2.13283 -8.70844 0
3.19853 4.774 0
0 0 0

-1.49606 -9.84335 0
4.40422 2.62515 0
0 0 0

SCALARS active double 1
LOOKUP_TABLE default
1
1
1
1
1
1
1
1
1
1
1
1
1
1
1
1
1
1
1
1
1
1
1
1
1
1
1
1
1
1
1
1
1
1
1
1
1
1
1
1
1
1
1
1
1
1
1
1
1
1
1
1
1
1
1
1
1
1
1
1
1
1
1
1
SCALARS extent double 1
LOOKUP_TABLE default
0.0125
0.0125
0.0125
0.0125
0.0125
0.0125
0.0125
0.0125
0.0125
0.0125
0.0125
0.0125
0.0125
0.0125
0.0125
0.0125
0.0125
0.0125
0.0125
0.0125
0.0125
0.0125
0.0125
0.0125
0.0125
0.0125
0.0125
0.0125
0.0125
0.0125
0.0125
0.0125
0.0125
0.0125
0.0125
0.0125
0.0125
0.0125
0.0125
0.0125
0.0125
0.0125
0.0125
0.0125
0.0125
0.0125
0.0125
0.0125
0.0125
0.0125
0.0125
0.0125
0.0125
0.0125
0.0125
0.0125
0.0125
0.0125
0.0125
0.0125
0.0125
0.0125
0.0125
0.0125
SCALARS pressure double 1
LOOKUP_TABLE default
59806.5
35453.9
27742.6
7799.17
26989.9
19060.2
5508.66
6831.62
-287.563
-1453.44
3708.17
601.732
316.588
-441.227
-918.728
-2793.53
9437.17
10380.4
4057.5
6024.54
6721.78
1012.47
5159.37
2684.92
4553.93
1187.08
3667.93
4143.3
-898.287
-2512.67
381.923
1311.42
8346.66
-4527.58
1124.96
2826.16
2943.55
167.505
1680.74
-865.841
-2432.47
-2970.59
-2760.42
840.354
-254.096
-4930.48
343.941
510.398
-172.005
2514.96
343.564
-3317.2
-3941.98
-713.673
-3369.26
-3327.92
-2162.79
313.527
1437.72
4459.66
3042.25
2053.74
710.12
-52.5545
SCALARS density double 1
LOOKUP_TABLE default
1862.63
1445.88
1334.46
1084.49
1324.05
1219.24
1058.96
1073.63
997.014
984.998
1039.32
1006.28
1003.3
995.422
990.491
971.365
1103.12
1114
1043.1
1064.66
1072.41
1010.59
1055.12
1028.32
1048.5
1012.42
1038.88
1044.03
990.701
974.207
1003.98
1013.73
1090.68
954.005
1011.77
1029.83
1031.09
1001.74
1017.63
991.036
975.02
969.578
971.7
1008.78
997.361
950.015
1003.58
1005.32
998.213
1026.5
1003.58
966.089
959.832
992.605
965.566
965.982
977.758
1003.27
1015.06
1047.47
1032.15
1021.59
1007.41
999.454
