# vtk DataFile Version 3.0
Frame: 41, Time: 0.697
ASCII
DATASET UNSTRUCTURED_GRID
POINTS 64 double
0.643824 0.187603 0 
0.628698 0.167731 0 
0.619926 0.203044 0 
0.606068 0.182375 0 
0.612915 0.146627 0 
0.602622 0.124537 0 
0.591399 0.160798 0 
0.579003 0.13902 0 
0.586932 0.102875 0 
0.571522 0.0798576 0 
0.564776 0.117472 0 
0.550837 0.0956205 0 
0.556773 0.0591658 0 
0.534606 0.0391667 0 
0.536408 0.0750745 0 
0.519908 0.054835 0 
0.595419 0.216601 0 
0.58267 0.194434 0 
0.577689 0.23321 0 
0.562928 0.211693 0 
0.571002 0.173434 0 
0.557876 0.152209 0 
0.550776 0.188726 0 
0.537061 0.166308 0 
0.542322 0.131485 0 
0.530705 0.110289 0 
0.522026 0.147346 0 
0.509269 0.125048 0 
0.517275 0.0894196 0 
0.500877 0.0691392 0 
0.495895 0.102859 0 
0.481494 0.0830826 0 
0.555984 0.247172 0 
0.541414 0.224791 0 
0.533382 0.262738 0 
0.519429 0.238607 0 
0.528753 0.20351 0 
0.515421 0.180936 0 
0.507226 0.215896 0 
0.492985 0.19364 0 
0.500747 0.159443 0 
0.487199 0.137501 0 
0.480025 0.171792 0 
0.466185 0.150492 0 
0.473379 0.115965 0 
0.459096 0.0950663 0 
0.452031 0.129798 0 
0.438197 0.108773 0 
0.512224 0.275951 0 
0.498796 0.251619 0 
0.489173 0.288553 0 
0.476827 0.264109 0 
0.486122 0.229702 0 
0.471656 0.208518 0 
0.464405 0.243015 0 
0.451135 0.221496 0 
0.45818 0.187303 0 
0.444968 0.165516 0 
0.437018 0.200883 0 
0.42282 0.180044 0 
0.430908 0.144856 0 
0.417259 0.12175 0 
0.408294 0.157253 0 
0.3957 0.134997 0 
CELLS 64 128
1 0
1 1
1 2
1 3
1 4
1 5
1 6
1 7
1 8
1 9
1 10
1 11
1 12
1 13
1 14
1 15
1 16
1 17
1 18
1 19
1 20
1 21
1 22
1 23
1 24
1 25
1 26
1 27
1 28
1 29
1 30
1 31
1 32
1 33
1 34
1 35
1 36
1 37
1 38
1 39
1 40
1 41
1 42
1 43
1 44
1 45
1 46
1 47
1 48
1 49
1 50
1 51
1 52
1 53
1 54
1 55
1 56
1 57
1 58
1 59
1 60
1 61
1 62
1 63
CELL_TYPES 64
1
1
1
1
1
1
1
1
1
1
1
1
1
1
1
1
1
1
1
1
1
1
1
1
1
1
1
1
1
1
1
1
1
1
1
1
1
1
1
1
1
1
1
1
1
1
1
1
1
1
1
1
1
1
1
1
1
1
1
1
1
1
1
1
POINT_DATA 64
VECTORS displacement double
0.0313239 -0.124897 0 
0.0161976 -0.169769 0 
-0.0175737 -0.109456 0 
-0.0314318 -0.155125 0 
0.000415127 -0.215873 0 
-0.0098777 -0.262963 0 
-0.046101 -0.201702 0 
-0.0584967 -0.24848 0 
-0.0255683 -0.309625 0 
-0.0409783 -0.357642 0 
-0.0727244 -0.295028 0 
-0.0866635 -0.341879 0 
-0.0557275 -0.403334 0 
-0.0778935 -0.448333 0 
-0.101092 -0.387425 0 
-0.117592 -0.432665 0 
-0.0670806 -0.0958989 0 
-0.0798302 -0.143066 0 
-0.109811 -0.0792898 0 
-0.124572 -0.125807 0 
-0.0914977 -0.189066 0 
-0.104624 -0.235291 0 
-0.136724 -0.173774 0 
-0.150439 -0.221192 0 
-0.120178 -0.281015 0 
-0.131795 -0.327211 0 
-0.165474 -0.265154 0 
-0.178231 -0.312452 0 
-0.145225 -0.37308 0 
-0.161623 -0.418361 0 
-0.191605 -0.359641 0 
-0.206006 -0.404417 0 
-0.156516 -0.0653277 0 
-0.171086 -0.112709 0 
-0.204118 -0.0497618 0 
-0.218071 -0.0988931 0 
-0.183747 -0.15899 0 
-0.197079 -0.206564 0 
-0.230274 -0.146604 0 
-0.244515 -0.19386 0 
-0.211753 -0.253057 0 
-0.225301 -0.299999 0 
-0.257475 -0.240708 0 
-0.271315 -0.287008 0 
-0.239121 -0.346535 0 
-0.253404 -0.392434 0 
-0.285469 -0.332702 0 
-0.299303 -0.378727 0 
-0.250276 -0.0365486 0 
-0.263704 -0.0858809 0 
-0.298327 -0.023947 0 
-0.310673 -0.0733908 0 
-0.276378 -0.132798 0 
-0.290844 -0.178982 0 
-0.323095 -0.119485 0 
-0.336365 -0.166004 0 
-0.30432 -0.225197 0 
-0.317532 -0.271984 0 
-0.350482 -0.211617 0 
-0.36468 -0.257456 0 
-0.331592 -0.317644 0 
-0.345241 -0.36575 0 
-0.379206 -0.305247 0 
-0.3918 -0.352503 0 
VECTORS velocity double
-1.22212 0.904119 0 
-0.896193 1.02968 0 
-1.30647 0.983663 0 
-1.12508 0.533338 0 
-0.674744 0.505959 0 
-0.117583 0.883721 0 
-1.22217 -0.154925 0 
-1.20384 -0.0627511 0 
-0.941474 0.297599 0 
-0.434953 0.524969 0 
-0.954726 -0.0706128 0 
-0.865598 -0.227673 0 
-0.401716 0.420664 0 
-0.0276635 -0.12307 0 
-0.745401 0.0618361 0 
-0.279304 -0.257689 0 
-1.70793 -0.182929 0 
-1.20771 -0.243607 0 
-1.60033 0.552575 0 
-1.46423 0.158997 0 
-0.74037 0.020489 0 
-0.697332 0.153013 0 
-1.14846 -0.114582 0 
-1.01135 0.0115845 0 
-0.939007 0.374146 0 
-0.685742 -0.0743635 0 
-1.13363 0.466428 0 
-0.986588 -0.036981 0 
-0.50116 -0.211895 0 
-0.269207 -0.510418 0 
-0.984171 -0.275491 0 
-0.649375 -0.541229 0 
-1.50066 -0.563255 0 
-1.25558 0.153296 0 
-2.22567 -0.0234656 0 
-1.59505 -0.466639 0 
-1.68178 -0.355057 0 
-1.05428 -0.841685 0 
-2.09319 0.0296864 0 
-1.63983 -0.499586 0 
-0.743826 -0.434754 0 
-0.592715 -0.877271 0 
-1.14985 -0.710664 0 
-0.960591 -0.983356 0 
-0.993891 -0.494248 0 
-0.491303 -0.720329 0 
-1.29326 -0.5139 0 
-0.858363 -0.729994 0 
-1.92326 0.198729 0 
-1.44484 -0.382381 0 
-1.90721 -0.416131 0 
-2.05439 -1.14626 0 
-0.863129 0.199595 0 
-0.784892 -0.152926 0 
-1.83831 -0.552671 0 
-1.55504 -0.89854 0 
-1.33016 -0.58784 0 
-0.999069 -0.49744 0 
-1.21407 -0.824868 0 
-1.22043 -1.41179 0 
-0.341589 -0.285711 0 
-0.308898 -0.981907 0 
-1.4237 -1.3838 0 
-1.02457 -0.967906 0 
SCALARS mass double 1
LOOKUP_TABLE default
0.625
0.625
0.625
0.625
0.625
0.625
0.625
0.625
0.625
0.625
0.625
0.625
0.625
0.625
0.625
0.625
0.625
0.625
0.625
0.625
0.625
0.625
0.625
0.625
0.625
0.625
0.625
0.625
0.625
0.625
0.625
0.625
0.625
0.625
0.625
0.625
0.625
0.625
0.625
0.625
0.625
0.625
0.625
0.625
0.625
0.625
0.625
0.625
0.625
0.625
0.625
0.625
0.625
0.625
0.625
0.625
0.625
0.625
0.625
0.625
0.625
0.625
0.625
0.625
SCALARS volume double 1
LOOKUP_TABLE default
0.00063486
0.000621642
0.000628213
0.000635303
0.000618275
0.000626357
0.000591102
0.00062068
0.000654744
0.000605257
0.000659348
0.000619373
0.000657477
0.000518415
0.000629985
0.000622404
0.000619258
0.000659543
0.000629763
0.000624796
0.000547825
0.000598421
0.000669783
0.000625373
0.000621145
0.00063031
0.000606758
0.00065073
0.0005855
0.00058407
0.000614299
0.000620757
0.000619687
0.000612195
0.000644074
0.000646482
0.000658353
0.000617121
0.000606446
0.00063236
0.000628266
0.000618132
0.000632878
0.000614755
0.000604937
0.000615828
0.000614173
0.000616018
0.000611371
0.000614224
0.000626083
0.000617139
0.000634146
0.000629063
0.000625246
0.000603871
0.000621451
0.00062905
0.000630033
0.000626521
0.00062845
0.000618584
0.000621086
0.000623851
VECTORS momentum double
-0.763822 0.565074 0 
-0.560121 0.643551 0 
-0.816544 0.614789 0 
-0.703175 0.333336 0 
-0.421715 0.316224 0 
-0.0734894 0.552326 0 
-0.763854 -0.096828 0 
-0.752402 -0.0392194 0 
-0.588421 0.186 0 
-0.271846 0.328106 0 
-0.596704 -0.044133 0 
-0.540999 -0.142296 0 
-0.251073 0.262915 0 
-0.0172897 -0.0769184 0 
-0.465876 0.0386476 0 
-0.174565 -0.161056 0 
-1.06746 -0.114331 0 
-0.754818 -0.152255 0 
-1.00021 0.345359 0 
-0.915141 0.099373 0 
-0.462731 0.0128056 0 
-0.435832 0.095633 0 
-0.717785 -0.0716138 0 
-0.632096 0.00724029 0 
-0.586879 0.233841 0 
-0.428589 -0.0464772 0 
-0.708521 0.291518 0 
-0.616617 -0.0231131 0 
-0.313225 -0.132434 0 
-0.168254 -0.319011 0 
-0.615107 -0.172182 0 
-0.40586 -0.338268 0 
-0.93791 -0.352034 0 
-0.784736 0.0958097 0 
-1.39104 -0.014666 0 
-0.996906 -0.29165 0 
-1.05111 -0.221911 0 
-0.658923 -0.526053 0 
-1.30825 0.018554 0 
-1.0249 -0.312241 0 
-0.464891 -0.271721 0 
-0.370447 -0.548294 0 
-0.718656 -0.444165 0 
-0.600369 -0.614597 0 
-0.621182 -0.308905 0 
-0.307064 -0.450205 0 
-0.80829 -0.321187 0 
-0.536477 -0.456246 0 
-1.20204 0.124206 0 
-0.903023 -0.238988 0 
-1.192 -0.260082 0 
-1.284 -0.716413 0 
-0.539456 0.124747 0 
-0.490557 -0.0955787 0 
-1.14894 -0.345419 0 
-0.971897 -0.561588 0 
-0.83135 -0.3674 0 
-0.624418 -0.3109 0 
-0.758792 -0.515543 0 
-0.76277 -0.88237 0 
-0.213493 -0.178569 0 
-0.193061 -0.613692 0 
-0.889812 -0.864877 0 
-0.640353 -0.604941 0 
VECTORS body_force double
0 -9.81 0 
0 -9.81 0 
0 -9.81 0 
0 -9.81 0 
0 -9.81 0 
0 -9.81 0 
0 -9.81 0 
0 -9.81 0 
0 -9.81 0 
0 -9.81 0 
0 -9.81 0 
0 -9.81 0 
0 -9.81 0 
0 -9.81 0 
0 -9.81 0 
0 -9.81 0 
0 -9.81 0 
0 -9.81 0 
0 -9.81 0 
0 -9.81 0 
0 -9.81 0 
0 -9.81 0 
0 -9.81 0 
0 -9.81 0 
0 -9.81 0 
0 -9.81 0 
0 -9.81 0 
0 -9.81 0 
0 -9.81 0 
0 -9.81 0 
0 -9.81 0 
0 -9.81 0 
0 -9.81 0 
0 -9.81 0 
0 -9.81 0 
0 -9.81 0 
0 -9.81 0 
0 -9.81 0 
0 -9.81 0 
0 -9.81 0 
0 -9.81 0 
0 -9.81 0 
0 -9.81 0 
0 -9.81 0 
0 -9.81 0 
0 -9.81 0 
0 -9.81 0 
0 -9.81 0 
0 -9.81 0 
0 -9.81 0 
0 -9.81 0 
0 -9.81 0 
0 -9.81 0 
0 -9.81 0 
0 -9.81 0 
0 -9.81 0 
0 -9.81 0 
0 -9.81 0 
0 -9.81 0 
0 -9.81 0 
0 -9.81 0 
0 -9.81 0 
0 -9.81 0 
0 -9.81 0 
TENSORS cauchy_stress double
245.973 -397.737 0
-397.737 2764.34 0
0 0 0

-1312.75 2937.75 0
2937.75 276.791 0
0 0 0

1335.14 -3058.76 0
-3058.76 -349.009 0
0 0 0

1005.31 -2406.69 0
-2406.69 2138.89 0
0 0 0

-1599.9 1044.61 0
1044.61 -480.596 0
0 0 0

1141.18 -583.264 0
-583.264 -724.151 0
0 0 0

-4435.04 1042.68 0
1042.68 -6288.53 0
0 0 0

209.792 -1869.26 0
-1869.26 -1543.72 0
0 0 0

2977.59 3270.71 0
3270.71 5963.43 0
0 0 0

-2983.96 1837.73 0
1837.73 -3188.74 0
0 0 0

8500.09 -1704.87 0
-1704.87 1788.22 0
0 0 0

-4082.69 -1058.35 0
-1058.35 2343.38 0
0 0 0

4302.56 2311.71 0
2311.71 5439.46 0
0 0 0

-8897.03 21748.2 0
21748.2 -27059.6 0
0 0 0

2949.77 -473.126 0
-473.126 -1421.91 0
0 0 0

6029.76 505.147 0
505.147 -6830.17 0
0 0 0

3917.5 1983.4 0
1983.4 -5692.44 0
0 0 0

4916.73 2889.09 0
2889.09 5428.49 0
0 0 0

-328.64 78.8798 0
78.8798 1788.56 0
0 0 0

-2901.27 -3270.17 0
-3270.17 2838.55 0
0 0 0

-11191.9 -3060.63 0
-3060.63 -14153.5 0
0 0 0

-3524.85 1149.76 0
1149.76 -4832.14 0
0 0 0

2323.94 -1814.37 0
-1814.37 10984.1 0
0 0 0

719.928 -3003.94 0
-3003.94 -605.222 0
0 0 0

505.668 -2337.73 0
-2337.73 -1695.53 0
0 0 0

-2498.21 -4023.85 0
-4023.85 4125.21 0
0 0 0

-5397.38 -1692.28 0
-1692.28 -299.029 0
0 0 0

2783.8 1151.47 0
1151.47 4974.37 0
0 0 0

-4671.35 163.455 0
163.455 -7883.46 0
0 0 0

-3930.29 3121.34 0
3121.34 -9094.74 0
0 0 0

-1057.52 -737.065 0
-737.065 -2263.6 0
0 0 0

63.6405 1857.08 0
1857.08 -1373.69 0
0 0 0

2957.2 4976.12 0
4976.12 -4599.05 0
0 0 0

-312.398 153.429 0
153.429 -3668.58 0
0 0 0

2780.14 -995.391 0
-995.391 3000.93 0
0 0 0

461.76 -98.3307 0
-98.3307 6037.04 0
0 0 0

5783.91 -855.666 0
-855.666 4214.07 0
0 0 0

2897.17 332.682 0
332.682 -5336.87 0
0 0 0

-3562.55 495.452 0
495.452 -2232.81 0
0 0 0

-311.929 -1661.41 0
-1661.41 2563.25 0
0 0 0

540.27 1660.72 0
1660.72 461.995 0
0 0 0

6068.5 3831.91 0
3831.91 -8193.39 0
0 0 0

605.974 -2273.57 0
-2273.57 1802.73 0
0 0 0

-3702.17 -1394.13 0
-1394.13 523.639 0
0 0 0

201.987 698.392 0
698.392 -6476.57 0
0 0 0

-2493.97 2916.12 0
2916.12 -349.188 0
0 0 0

-2268.82 -2122.96 0
-2122.96 -1091.79 0
0 0 0

-3601.19 -990.422 0
-990.422 817.33 0
0 0 0

-1911.75 -1352.02 0
-1352.02 -2328.22 0
0 0 0

-6078.45 535.191 0
535.191 2733.86 0
0 0 0

-461.059 1602.55 0
1602.55 794.043 0
0 0 0

-1809.71 -259.378 0
-259.378 -624.51 0
0 0 0

4447.86 -1436.83 0
-1436.83 -1654.21 0
0 0 0

76.2542 1106.41 0
1106.41 1169.82 0
0 0 0

2469.28 -1035.87 0
-1035.87 -2393.62 0
0 0 0

-4206.12 -648.791 0
-648.791 -2407.64 0
0 0 0

865.5 1555.46 0
1555.46 -1960.57 0
0 0 0

4146.41 -1682.11 0
-1682.11 -2904.3 0
0 0 0

24.3737 -1710.44 0
-1710.44 1518.01 0
0 0 0

361.438 1976.34 0
1976.34 106.008 0
0 0 0

3295.96 660.589 0
660.589 -2237.28 0
0 0 0

-1794.92 2039.99 0
2039.99 -189.492 0
0 0 0

-2025.96 1404.12 0
1404.12 817.734 0
0 0 0

123.258 -357.022 0
-357.022 -477.217 0
0 0 0

TENSORS velocity_gradient double
0.412307 -7.32215 0
11.6297 0.414183 0
0 0 0

0.142035 -7.80223 0
12.083 0.0268474 0
0 0 0

1.70103 -4.76426 0
13.2715 -0.999139 0
0 0 0

0.526638 -8.38203 0
12.5552 -0.685026 0
0 0 0

0.564344 -5.60439 0
11.2135 -0.670943 0
0 0 0

3.3317 -3.54662 0
8.67949 -1.31556 0
0 0 0

1.69387 -8.34764 0
4.91555 -1.27414 0
0 0 0

1.64908 -3.33308 0
4.83085 -0.973934 0
0 0 0

0.499864 -3.7402 0
6.0574 -0.747478 0
0 0 0

-0.438904 -5.97534 0
5.74965 0.0964488 0
0 0 0

0.98065 -3.77744 0
5.62646 -0.445041 0
0 0 0

0.147923 -6.43416 0
6.73691 -0.312736 0
0 0 0

-1.33139 -6.62016 0
5.22492 -0.282663 0
0 0 0

-0.820328 -7.59021 0
6.37334 -0.671659 0
0 0 0

-0.45791 -7.23919 0
7.92307 -0.359205 0
0 0 0

-0.901549 -7.59499 0
7.9815 -0.50676 0
0 0 0

1.20961 -6.72475 0
8.03953 -2.06004 0
0 0 0

0.728296 -8.05118 0
6.48808 -1.674 0
0 0 0

0.154792 -6.79366 0
5.47979 -1.50101 0
0 0 0

0.416723 -6.61174 0
6.32223 -0.915921 0
0 0 0

1.32683 -7.76497 0
5.51935 -2.23267 0
0 0 0

1.81272 -6.25859 0
4.69075 -1.97728 0
0 0 0

0.858213 -7.29243 0
6.21856 -2.89455 0
0 0 0

0.345866 -7.37612 0
8.13979 -2.22689 0
0 0 0

0.0500813 -4.24554 0
8.89701 -0.123314 0
0 0 0

0.100982 -4.21731 0
8.1059 -0.562116 0
0 0 0

0.0551985 -5.25376 0
9.26052 -0.882085 0
0 0 0

0.0649182 -4.16576 0
8.66641 -1.36327 0
0 0 0

-0.117907 -7.68546 0
7.80314 -0.201791 0
0 0 0

-0.0297788 -7.97365 0
7.12178 -0.174464 0
0 0 0

0.222056 -5.02571 0
7.00582 -1.23902 0
0 0 0

0.6006 -7.79 0
6.30973 -0.710931 0
0 0 0

-0.477523 -7.47011 0
4.43572 -0.282291 0
0 0 0

0.708557 -6.34129 0
4.55572 -0.181201 0
0 0 0

-0.291989 -7.03185 0
4.96225 1.93691 0
0 0 0

0.52115 -6.04646 0
4.21741 0.351011 0
0 0 0

0.950807 -6.44915 0
5.15369 -0.205681 0
0 0 0

0.653562 -7.8232 0
6.82787 -0.320679 0
0 0 0

0.826201 -5.88035 0
4.76808 0.650871 0
0 0 0

-2.45073 -7.8253 0
6.50368 0.993854 0
0 0 0

-0.195659 -7.97469 0
7.67398 0.747083 0
0 0 0

-0.258123 -3.96354 0
5.89936 -1.42398 0
0 0 0

-1.53928 -7.23638 0
6.06579 0.737894 0
0 0 0

-0.580479 -5.34747 0
5.72648 -0.104224 0
0 0 0

0.0628135 -3.75576 0
6.47455 -1.0516 0
0 0 0

0.388511 -6.80771 0
6.69565 -1.39907 0
0 0 0

-0.180066 -3.50859 0
5.97113 -0.571899 0
0 0 0

-0.849064 -3.69699 0
5.04536 -0.704899 0
0 0 0

-0.976988 -5.94707 0
6.01278 0.273266 0
0 0 0

-0.180648 -5.73314 0
5.37008 -0.0880994 0
0 0 0

2.27713 -5.9437 0
6.32624 -0.768065 0
0 0 0

0.320767 -6.94565 0
6.50435 -0.676845 0
0 0 0

-1.66782 -6.27285 0
6.63581 0.877411 0
0 0 0

-2.53596 -6.87593 0
6.66233 0.895835 0
0 0 0

-1.11381 -7.16523 0
6.61888 0.904674 0
0 0 0

-1.4068 -7.51385 0
7.50914 1.00405 0
0 0 0

-2.31196 -6.1602 0
6.40887 0.260059 0
0 0 0

0.32899 -5.88285 0
7.28741 -0.372331 0
0 0 0

1.19085 -6.63814 0
10.1791 0.568669 0
0 0 0

1.04409 -6.35422 0
8.88278 -2.24118 0
0 0 0

0.142476 -4.2375 0
6.09203 -0.998783 0
0 0 0

-0.488991 -4.27146 0
5.40368 -1.27658 0
0 0 0

0.471248 -6.7236 0
6.87784 -3.534 0
0 0 0

2.52523 -4.21586 0
2.16161 -1.48087 0
0 0 0

SCALARS active double 1
LOOKUP_TABLE default
1
1
1
1
1
1
1
1
1
1
1
1
1
1
1
1
1
1
1
1
1
1
1
1
1
1
1
1
1
1
1
1
1
1
1
1
1
1
1
1
1
1
1
1
1
1
1
1
1
1
1
1
1
1
1
1
1
1
1
1
1
1
1
1
SCALARS extent double 1
LOOKUP_TABLE default
0.0125
0.0125
0.0125
0.0125
0.0125
0.0125
0.0125
0.0125
0.0125
0.0125
0.0125
0.0125
0.0125
0.0125
0.0125
0.0125
0.0125
0.0125
0.0125
0.0125
0.0125
0.0125
0.0125
0.0125
0.0125
0.0125
0.0125
0.0125
0.0125
0.0125
0.0125
0.0125
0.0125
0.0125
0.0125
0.0125
0.0125
0.0125
0.0125
0.0125
0.0125
0.0125
0.0125
0.0125
0.0125
0.0125
0.0125
0.0125
0.0125
0.0125
0.0125
0.0125
0.0125
0.0125
0.0125
0.0125
0.0125
0.0125
0.0125
0.0125
0.0125
0.0125
0.0125
0.0125
SCALARS pressure double 1
LOOKUP_TABLE default
-1505.16
517.982
-493.068
-1572.1
1040.25
-208.516
5361.78
666.963
-4470.51
3086.35
-5144.16
869.653
-4871.01
17978.3
-763.933
400.205
887.47
-5172.61
-729.959
31.3591
12672.7
4178.49
-6654.03
-57.3528
594.93
-813.502
2848.21
-3879.08
6277.41
6512.51
1660.56
655.023
820.928
1990.49
-2890.54
-3249.4
-4998.99
1219.85
2897.68
-1125.66
-501.133
1062.45
-1204.35
1589.27
3137.29
1421.58
1680.3
1391.93
2119.98
1672.29
-166.492
1217.11
-1396.83
-623.037
-37.8299
3306.88
547.536
-621.057
-771.19
-233.723
-529.343
992.208
604.111
176.979
SCALARS density double 1
LOOKUP_TABLE default
984.468
1005.4
994.885
983.783
1010.88
997.834
1057.35
1006.96
954.571
1032.62
947.907
1009.09
950.603
1205.6
992.087
1004.17
1009.27
947.626
992.437
1000.33
1140.88
1044.41
933.138
999.404
1006.21
991.575
1030.06
960.46
1067.46
1070.08
1017.42
1006.84
1008.57
1020.92
970.386
966.771
949.339
1012.77
1030.59
988.361
994.802
1011.11
987.553
1016.67
1033.17
1014.89
1017.63
1014.58
1022.29
1017.54
998.27
1012.74
985.578
993.541
999.607
1034.99
1005.71
993.562
992.012
997.572
994.51
1010.37
1006.3
1001.84
