# vtk DataFile Version 3.0
Frame: 56, Time: 0.952
ASCII
DATASET UNSTRUCTURED_GRID
POINTS 64 double
0.453736 0.209043 0 
0.450133 0.185512 0 
0.425959 0.212554 0 
0.423307 0.187613 0 
0.446837 0.160426 0 
0.447511 0.137597 0 
0.4198 0.1625 0 
0.418223 0.138497 0 
0.443139 0.113725 0 
0.443117 0.0891642 0 
0.416089 0.114966 0 
0.415184 0.09074 0 
0.442409 0.0670387 0 
0.442447 0.0428413 0 
0.414013 0.0666924 0 
0.414448 0.0426657 0 
0.397686 0.212928 0 
0.396989 0.187855 0 
0.373606 0.218929 0 
0.370963 0.193501 0 
0.394829 0.16461 0 
0.39155 0.140297 0 
0.369496 0.168336 0 
0.366326 0.142381 0 
0.388616 0.115446 0 
0.389668 0.0921259 0 
0.362678 0.118011 0 
0.362877 0.0926797 0 
0.389814 0.0690306 0 
0.389536 0.0446748 0 
0.363177 0.0686418 0 
0.362272 0.0458879 0 
0.347307 0.220387 0 
0.345678 0.194437 0 
0.319635 0.224466 0 
0.319167 0.196337 0 
0.34312 0.170113 0 
0.3403 0.144403 0 
0.31772 0.171197 0 
0.314943 0.145548 0 
0.337304 0.118283 0 
0.336281 0.0928205 0 
0.313311 0.12034 0 
0.311484 0.0949905 0 
0.3354 0.0672312 0 
0.33425 0.0423149 0 
0.309538 0.0688545 0 
0.306879 0.0436428 0 
0.295905 0.225777 0 
0.294098 0.197474 0 
0.268593 0.224826 0 
0.267966 0.198208 0 
0.291367 0.173404 0 
0.288998 0.14847 0 
0.264775 0.174444 0 
0.264619 0.149132 0 
0.287918 0.122476 0 
0.287177 0.0965239 0 
0.2643 0.123908 0 
0.260849 0.100351 0 
0.283663 0.0718798 0 
0.279571 0.0467696 0 
0.256205 0.0750472 0 
0.251976 0.0519832 0 
CELLS 64 128
1 0
1 1
1 2
1 3
1 4
1 5
1 6
1 7
1 8
1 9
1 10
1 11
1 12
1 13
1 14
1 15
1 16
1 17
1 18
1 19
1 20
1 21
1 22
1 23
1 24
1 25
1 26
1 27
1 28
1 29
1 30
1 31
1 32
1 33
1 34
1 35
1 36
1 37
1 38
1 39
1 40
1 41
1 42
1 43
1 44
1 45
1 46
1 47
1 48
1 49
1 50
1 51
1 52
1 53
1 54
1 55
1 56
1 57
1 58
1 59
1 60
1 61
1 62
1 63
CELL_TYPES 64
1
1
1
1
1
1
1
1
1
1
1
1
1
1
1
1
1
1
1
1
1
1
1
1
1
1
1
1
1
1
1
1
1
1
1
1
1
1
1
1
1
1
1
1
1
1
1
1
1
1
1
1
1
1
1
1
1
1
1
1
1
1
1
1
POINT_DATA 64
VECTORS displacement double
-0.158764 -0.103457 0 
-0.162367 -0.151988 0 
-0.211541 -0.0999459 0 
-0.214193 -0.149887 0 
-0.165663 -0.202074 0 
-0.164989 -0.249903 0 
-0.2177 -0.2 0 
-0.219277 -0.249003 0 
-0.169361 -0.298775 0 
-0.169383 -0.348336 0 
-0.221411 -0.297534 0 
-0.222316 -0.34676 0 
-0.170091 -0.395461 0 
-0.170053 -0.444659 0 
-0.223487 -0.395808 0 
-0.223052 -0.444834 0 
-0.264814 -0.0995717 0 
-0.265511 -0.149645 0 
-0.313894 -0.0935708 0 
-0.316537 -0.143999 0 
-0.267671 -0.19789 0 
-0.27095 -0.247203 0 
-0.318004 -0.194164 0 
-0.321174 -0.245119 0 
-0.273884 -0.297054 0 
-0.272832 -0.345374 0 
-0.324822 -0.294489 0 
-0.324623 -0.34482 0 
-0.272686 -0.393469 0 
-0.272964 -0.442825 0 
-0.324323 -0.393858 0 
-0.325228 -0.441612 0 
-0.365193 -0.0921132 0 
-0.366822 -0.143063 0 
-0.417865 -0.0880336 0 
-0.418333 -0.141163 0 
-0.36938 -0.192387 0 
-0.3722 -0.243097 0 
-0.41978 -0.191303 0 
-0.422557 -0.241952 0 
-0.375196 -0.294217 0 
-0.376219 -0.344679 0 
-0.424189 -0.29216 0 
-0.426016 -0.342509 0 
-0.3771 -0.395269 0 
-0.37825 -0.445185 0 
-0.427962 -0.393646 0 
-0.430621 -0.443857 0 
-0.466595 -0.086723 0 
-0.468402 -0.140026 0 
-0.518907 -0.0876738 0 
-0.519534 -0.139292 0 
-0.471133 -0.189096 0 
-0.473502 -0.23903 0 
-0.522725 -0.188056 0 
-0.522881 -0.238368 0 
-0.474582 -0.290024 0 
-0.475323 -0.340976 0 
-0.5232 -0.288592 0 
-0.526651 -0.337149 0 
-0.478837 -0.39062 0 
-0.482929 -0.44073 0 
-0.531295 -0.387453 0 
-0.535524 -0.435517 0 
VECTORS velocity double
-0.328489 0.151802 0 
0.0277338 0.163095 0 
-0.295333 0.0864802 0 
-0.060558 0.0768014 0 
-0.0273913 -0.184007 0 
0.170195 0.226288 0 
-0.0219334 -0.189971 0 
-0.229243 0.117095 0 
-0.666684 -0.0304813 0 
0.0261303 -0.0740598 0 
-0.351955 0.280199 0 
-0.0676101 0.079523 0 
-0.097288 0.187659 0 
0.0855326 -0.0800846 0 
0.160753 -0.0171995 0 
-0.156821 -0.319377 0 
-0.427885 -0.351313 0 
0.103872 -0.32165 0 
-0.397861 0.0105534 0 
-0.336804 -0.225442 0 
0.281427 -0.2013 0 
-0.122482 -0.168946 0 
-0.337671 -0.490159 0 
-0.627019 -0.267811 0 
-0.533106 0.117552 0 
-0.00184672 -0.469434 0 
-0.791613 0.0847755 0 
-0.240768 -0.550298 0 
0.417318 -0.534218 0 
0.407866 -0.369888 0 
0.0309291 -0.143455 0 
0.170678 0.138703 0 
-0.283765 -0.95747 0 
0.0974105 -0.20777 0 
-0.574798 -0.08972 0 
-0.180602 -0.315615 0 
-0.221315 -0.535016 0 
0.00825544 -0.4908 0 
-0.533063 0.0946125 0 
-0.298545 -0.204149 0 
-0.190882 0.105946 0 
0.204221 -0.611971 0 
-0.38192 0.173128 0 
-0.368041 -0.410702 0 
0.206576 -0.11204 0 
0.443335 -0.285506 0 
-0.290997 -0.513974 0 
0.0918226 -0.286208 0 
-0.0511043 -0.592845 0 
-0.469736 -0.614046 0 
-0.365811 -0.338465 0 
-0.350182 -0.41129 0 
-0.470526 -0.052113 0 
-0.142306 -0.665418 0 
-0.636722 -0.416198 0 
-0.433815 -0.610876 0 
-0.311307 -0.73163 0 
-0.111272 -0.642103 0 
0.313577 -0.467165 0 
-0.1293 -0.276886 0 
0.133094 -0.451175 0 
-0.158056 -0.0564251 0 
-0.847058 -0.214262 0 
0.0081115 -0.378965 0 
SCALARS mass double 1
LOOKUP_TABLE default
0.625
0.625
0.625
0.625
0.625
0.625
0.625
0.625
0.625
0.625
0.625
0.625
0.625
0.625
0.625
0.625
0.625
0.625
0.625
0.625
0.625
0.625
0.625
0.625
0.625
0.625
0.625
0.625
0.625
0.625
0.625
0.625
0.625
0.625
0.625
0.625
0.625
0.625
0.625
0.625
0.625
0.625
0.625
0.625
0.625
0.625
0.625
0.625
0.625
0.625
0.625
0.625
0.625
0.625
0.625
0.625
0.625
0.625
0.625
0.625
0.625
0.625
0.625
0.625
SCALARS volume double 1
LOOKUP_TABLE default
0.000619596
0.000615647
0.000632066
0.000607777
0.000621498
0.000604777
0.000606574
0.000588866
0.00059871
0.000606648
0.0006008
0.000596721
0.000614442
0.000585714
0.00063952
0.00053007
0.000622867
0.0006424
0.000621735
0.000602305
0.000561835
0.000627371
0.000642106
0.000611336
0.000616357
0.000609607
0.000623151
0.000648679
0.000575682
0.000558273
0.000605852
0.000621967
0.000620221
0.000613554
0.00062553
0.000632107
0.000655616
0.000599806
0.000614335
0.000609492
0.000634621
0.00062208
0.000604719
0.000600966
0.000647781
0.000596465
0.000651484
0.000619384
0.000619547
0.000616188
0.000614591
0.000615545
0.000644949
0.000638087
0.000614081
0.000621577
0.000630804
0.000634195
0.000557171
0.000597559
0.00062461
0.000609015
0.0006465
0.000600319
VECTORS momentum double
-0.205306 0.0948759 0 
0.0173336 0.101934 0 
-0.184583 0.0540501 0 
-0.0378488 0.0480009 0 
-0.0171196 -0.115004 0 
0.106372 0.14143 0 
-0.0137084 -0.118732 0 
-0.143277 0.0731842 0 
-0.416678 -0.0190508 0 
0.0163314 -0.0462874 0 
-0.219972 0.175125 0 
-0.0422563 0.0497019 0 
-0.060805 0.117287 0 
0.0534578 -0.0500529 0 
0.100471 -0.0107497 0 
-0.0980134 -0.199611 0 
-0.267428 -0.219571 0 
0.0649203 -0.201031 0 
-0.248663 0.00659586 0 
-0.210502 -0.140901 0 
0.175892 -0.125813 0 
-0.0765512 -0.105591 0 
-0.211044 -0.306349 0 
-0.391887 -0.167382 0 
-0.333191 0.0734698 0 
-0.0011542 -0.293396 0 
-0.494758 0.0529847 0 
-0.15048 -0.343936 0 
0.260824 -0.333886 0 
0.254916 -0.23118 0 
0.0193307 -0.0896596 0 
0.106674 0.0866891 0 
-0.177353 -0.598419 0 
0.0608816 -0.129856 0 
-0.359249 -0.056075 0 
-0.112877 -0.197259 0 
-0.138322 -0.334385 0 
0.00515965 -0.30675 0 
-0.333164 0.0591328 0 
-0.18659 -0.127593 0 
-0.119302 0.0662163 0 
0.127638 -0.382482 0 
-0.2387 0.108205 0 
-0.230026 -0.256689 0 
0.12911 -0.0700248 0 
0.277085 -0.178441 0 
-0.181873 -0.321234 0 
0.0573891 -0.17888 0 
-0.0319402 -0.370528 0 
-0.293585 -0.383779 0 
-0.228632 -0.21154 0 
-0.218864 -0.257056 0 
-0.294079 -0.0325707 0 
-0.0889412 -0.415886 0 
-0.397951 -0.260124 0 
-0.271135 -0.381797 0 
-0.194567 -0.457269 0 
-0.0695451 -0.401315 0 
0.195986 -0.291978 0 
-0.0808123 -0.173053 0 
0.0831838 -0.281985 0 
-0.098785 -0.0352657 0 
-0.529411 -0.133913 0 
0.00506969 -0.236853 0 
VECTORS body_force double
0 -9.81 0 
0 -9.81 0 
0 -9.81 0 
0 -9.81 0 
0 -9.81 0 
0 -9.81 0 
0 -9.81 0 
0 -9.81 0 
0 -9.81 0 
0 -9.81 0 
0 -9.81 0 
0 -9.81 0 
0 -9.81 0 
0 -9.81 0 
0 -9.81 0 
0 -9.81 0 
0 -9.81 0 
0 -9.81 0 
0 -9.81 0 
0 -9.81 0 
0 -9.81 0 
0 -9.81 0 
0 -9.81 0 
0 -9.81 0 
0 -9.81 0 
0 -9.81 0 
0 -9.81 0 
0 -9.81 0 
0 -9.81 0 
0 -9.81 0 
0 -9.81 0 
0 -9.81 0 
0 -9.81 0 
0 -9.81 0 
0 -9.81 0 
0 -9.81 0 
0 -9.81 0 
0 -9.81 0 
0 -9.81 0 
0 -9.81 0 
0 -9.81 0 
0 -9.81 0 
0 -9.81 0 
0 -9.81 0 
0 -9.81 0 
0 -9.81 0 
0 -9.81 0 
0 -9.81 0 
0 -9.81 0 
0 -9.81 0 
0 -9.81 0 
0 -9.81 0 
0 -9.81 0 
0 -9.81 0 
0 -9.81 0 
0 -9.81 0 
0 -9.81 0 
0 -9.81 0 
0 -9.81 0 
0 -9.81 0 
0 -9.81 0 
0 -9.81 0 
0 -9.81 0 
0 -9.81 0 
TENSORS cauchy_stress double
-192.631 -146.743 0
-146.743 -1477.5 0
0 0 0

-0.658189 -1002.98 0
-1002.98 -2898.78 0
0 0 0

817.67 -263.938 0
-263.938 1344.16 0
0 0 0

-1170.04 -1029.79 0
-1029.79 -4203.74 0
0 0 0

1430.25 1359.1 0
1359.1 -2510.82 0
0 0 0

1945.52 -360.663 0
-360.663 -8270.85 0
0 0 0

645.205 3338.4 0
3338.4 -6400.14 0
0 0 0

297.383 35.7481 0
35.7481 -11749.9 0
0 0 0

-2088.72 536.583 0
536.583 -6175.69 0
0 0 0

3281.52 -250.087 0
-250.087 -9012.9 0
0 0 0

2101.12 1393.64 0
1393.64 -9695.27 0
0 0 0

-399.933 -2276.07 0
-2276.07 -8504.24 0
0 0 0

4791.99 -1319.95 0
-1319.95 -8068.23 0
0 0 0

-3245.74 -4763.94 0
-4763.94 -9238.93 0
0 0 0

5843.15 500.76 0
500.76 -1426.68 0
0 0 0

-3790.41 -2132.9 0
-2132.9 -27890.7 0
0 0 0

1905.26 2873.66 0
2873.66 -2562.75 0
0 0 0

2149.55 2634.27 0
2634.27 3131.15 0
0 0 0

-112.887 104.739 0
104.739 -894.259 0
0 0 0

-894.547 -253.884 0
-253.884 -6218.37 0
0 0 0

-4181.69 654.669 0
654.669 -16307.4 0
0 0 0

4413.75 1813.49 0
1813.49 -3685.74 0
0 0 0

2054.48 399.41 0
399.41 3138.09 0
0 0 0

347.685 3313.64 0
3313.64 -4598.63 0
0 0 0

3205.32 442.798 0
442.798 -5883.16 0
0 0 0

4236.64 -1380.03 0
-1380.03 -9032.26 0
0 0 0

1134.19 -2434.2 0
-2434.2 -1703.83 0
0 0 0

6241.38 3033.8 0
3033.8 909.689 0
0 0 0

-3024.57 -418.665 0
-418.665 -12782.3 0
0 0 0

-5104.02 -7641.7 0
-7641.7 -16608.2 0
0 0 0

2901.3 1744.1 0
1744.1 -8885.19 0
0 0 0

6199.47 -1839.99 0
-1839.99 -7134.85 0
0 0 0

-56.6423 2620.64 0
2620.64 -1419.42 0
0 0 0

1686.37 1952.32 0
1952.32 -5240.83 0
0 0 0

-1615.22 -2460.06 0
-2460.06 1778.08 0
0 0 0

998.217 -1048.98 0
-1048.98 1176.3 0
0 0 0

7245.84 2354.98 0
2354.98 1950.91 0
0 0 0

-1429.27 5544.33 0
5544.33 -6483.38 0
0 0 0

182.772 959.113 0
959.113 -3492.63 0
0 0 0

-882.356 -1253.68 0
-1253.68 -3949.43 0
0 0 0

272.823 -1893.41 0
-1893.41 2664.88 0
0 0 0

3220.66 4303.11 0
4303.11 -4121.2 0
0 0 0

-2530.57 -135.751 0
-135.751 -3813.21 0
0 0 0

-5978.85 -3564.42 0
-3564.42 -1562.21 0
0 0 0

5137.13 2972.96 0
2972.96 1747.67 0
0 0 0

2189.31 -4102.82 0
-4102.82 -11175.9 0
0 0 0

4883.1 1009.73 0
1009.73 3097.85 0
0 0 0

6611.7 -2697.36 0
-2697.36 -8347.37 0
0 0 0

-2470.38 2477.54 0
2477.54 785.145 0
0 0 0

-609.301 2961.59 0
2961.59 -2121.41 0
0 0 0

1651.13 -2887.5 0
-2887.5 -4881 0
0 0 0

-3087.44 -1201.53 0
-1201.53 156.105 0
0 0 0

9614.37 3641.81 0
3641.81 -3572.18 0
0 0 0

2105.19 -1938.33 0
-1938.33 1879.96 0
0 0 0

2609.71 4702.44 0
4702.44 -5999.15 0
0 0 0

-1655.94 -4379.75 0
-4379.75 599.858 0
0 0 0

-1475.08 3522.14 0
3522.14 3252.63 0
0 0 0

3839.19 -1579.53 0
-1579.53 -1030.46 0
0 0 0

-11752.6 2382.8 0
2382.8 -10339.5 0
0 0 0

-1469.3 -3758.16 0
-3758.16 -7165.11 0
0 0 0

3271.66 2480.81 0
2480.81 -3391.7 0
0 0 0

2923.43 -4379.68 0
-4379.68 -7905.91 0
0 0 0

7317.87 351.627 0
351.627 -813.724 0
0 0 0

583.227 1546.37 0
1546.37 -8331.33 0
0 0 0

TENSORS velocity_gradient double
0.141549 -3.13547 0
2.45027 0.145622 0
0 0 0

0.10334 -1.90812 0
2.65417 0.931053 0
0 0 0

0.716476 -4.38546 0
4.9537 0.00587147 0
0 0 0

0.549928 -1.07287 0
4.54064 -0.0775843 0
0 0 0

0.976889 -1.87242 0
2.66917 0.818115 0
0 0 0

0.785529 2.95356 0
1.42538 0.333005 0
0 0 0

1.49686 -0.939764 0
3.56539 -0.214673 0
0 0 0

1.33257 1.53072 0
2.9816 -0.20967 0
0 0 0

-0.0526522 2.92198 0
2.77345 -0.000611738 0
0 0 0

-1.41307 -4.61012 0
3.13675 1.10522 0
0 0 0

0.020748 1.41374 0
2.78448 -0.227249 0
0 0 0

-1.3218 -6.14794 0
3.06354 2.33867 0
0 0 0

-2.62834 -4.65482 0
4.11148 1.14107 0
0 0 0

-3.05869 0.439612 0
4.17131 -0.868373 0
0 0 0

-2.64092 -6.2206 0
4.12157 2.39694 0
0 0 0

-3.0545 2.44305 0
4.16561 -3.60058 0
0 0 0

0.700718 -5.33367 0
4.46904 -0.0668301 0
0 0 0

1.4668 -0.133247 0
3.74883 -0.980423 0
0 0 0

0.296959 -4.06245 0
4.52053 -1.10813 0
0 0 0

1.66425 0.562568 0
3.52056 -1.35515 0
0 0 0

2.32371 -0.0642415 0
3.20129 -1.03609 0
0 0 0

2.23623 0.0101014 0
3.01033 -0.323303 0
0 0 0

2.32451 0.60508 0
3.20002 -1.3737 0
0 0 0

2.36603 -1.50214 0
2.99985 -0.201249 0
0 0 0

0.74294 -0.166099 0
3.13085 -0.309082 0
0 0 0

-0.201716 -7.00088 0
2.56846 2.17089 0
0 0 0

0.901979 -1.72334 0
3.11802 -0.183395 0
0 0 0

-0.201067 -7.0288 0
2.61987 -0.0416366 0
0 0 0

-0.225725 -7.0009 0
0.665309 2.16963 0
0 0 0

-0.21724 2.56207 0
-0.770919 -4.16933 0
0 0 0

-0.226112 -7.02866 0
0.634664 -0.0307712 0
0 0 0

-0.219554 1.66034 0
-0.73261 -3.51683 0
0 0 0

0.727371 -2.32821 0
1.45987 -2.08334 0
0 0 0

2.20041 0.562185 0
1.07649 -1.54714 0
0 0 0

0.623389 -0.0790229 0
-0.00874646 -1.71542 0
0 0 0

2.29664 -0.435486 0
0.51494 -1.13063 0
0 0 0

1.05381 0.758328 0
1.08697 -1.47912 0
0 0 0

0.0628135 -2.10458 0
1.70818 0.0569535 0
0 0 0

1.11504 -0.637597 0
1.06249 -0.920929 0
0 0 0

0.0845339 -1.67497 0
1.67639 0.663731 0
0 0 0

0.510159 -2.26705 0
2.52665 0.272338 0
0 0 0

1.20365 -6.3506 0
2.87166 -1.5892 0
0 0 0

0.47113 -1.82469 0
2.45997 1.02809 0
0 0 0

1.11546 -4.66623 0
2.89669 -1.9989 0
0 0 0

2.5086 -6.2976 0
1.97688 -1.62554 0
0 0 0

2.88945 2.63373 0
1.16167 -4.5067 0
0 0 0

2.42313 -4.98445 0
2.03548 -2.52595 0
0 0 0

2.97503 0.723061 0
1.19948 -5.22671 0
0 0 0

0.445194 1.67661 0
-0.950396 -1.12139 0
0 0 0

1.30851 -0.66426 0
0.328125 -0.472086 0
0 0 0

0.468429 2.85823 0
-1.12746 0.250032 0
0 0 0

1.24987 -0.701756 0
0.277188 0.926853 0
0 0 0

0.405669 -1.9793 0
1.7189 -0.0363287 0
0 0 0

-0.429588 -1.67899 0
2.68067 0.414544 0
0 0 0

0.4514 -3.09997 0
1.65514 1.52603 0
0 0 0

-0.420111 -1.98786 0
2.68738 0.0465373 0
0 0 0

-0.159465 -1.38398 0
1.02111 0.54076 0
0 0 0

0.543658 -2.97701 0
-0.42456 -1.61371 0
0 0 0

-0.182969 -1.00331 0
1.13374 -1.28337 0
0 0 0

0.365421 -1.18735 0
-0.358144 -1.39985 0
0 0 0

2.35271 -3.24506 0
0.434578 -2.17201 0
0 0 0

3.56606 -1.76039 0
1.18145 -4.94513 0
0 0 0

2.10711 -1.13138 0
0.299429 -1.00886 0
0 0 0

1.24007 -1.81704 0
-1.23891 -1.93246 0
0 0 0

SCALARS active double 1
LOOKUP_TABLE default
1
1
1
1
1
1
1
1
1
1
1
1
1
1
1
1
1
1
1
1
1
1
1
1
1
1
1
1
1
1
1
1
1
1
1
1
1
1
1
1
1
1
1
1
1
1
1
1
1
1
1
1
1
1
1
1
1
1
1
1
1
1
1
1
SCALARS extent double 1
LOOKUP_TABLE default
0.0125
0.0125
0.0125
0.0125
0.0125
0.0125
0.0125
0.0125
0.0125
0.0125
0.0125
0.0125
0.0125
0.0125
0.0125
0.0125
0.0125
0.0125
0.0125
0.0125
0.0125
0.0125
0.0125
0.0125
0.0125
0.0125
0.0125
0.0125
0.0125
0.0125
0.0125
0.0125
0.0125
0.0125
0.0125
0.0125
0.0125
0.0125
0.0125
0.0125
0.0125
0.0125
0.0125
0.0125
0.0125
0.0125
0.0125
0.0125
0.0125
0.0125
0.0125
0.0125
0.0125
0.0125
0.0125
0.0125
0.0125
0.0125
0.0125
0.0125
0.0125
0.0125
0.0125
0.0125
SCALARS pressure double 1
LOOKUP_TABLE default
835.067
1449.72
-1080.91
2686.89
540.283
3162.66
2877.47
5726.26
4132.2
2865.69
3797.07
4452.09
1638.12
6242.34
-2208.23
15840.6
328.744
-2640.35
503.573
3556.46
10244.5
-364.005
-2596.28
2125.47
1338.92
2397.81
284.822
-3575.54
7903.44
10856.1
2991.95
467.689
738.032
1777.23
-81.4322
-1087.26
-4598.38
3956.32
1654.93
2415.89
-1468.85
450.27
3171.89
3770.53
-3442.4
4493.3
-3990.47
867.833
842.619
1365.35
1614.93
1465.67
-3021.1
-1992.57
1694.72
528.041
-888.775
-1404.37
11046
4317.21
60.0202
2491.24
-3252.07
3874.05
SCALARS density double 1
LOOKUP_TABLE default
1008.72
1015.19
988.821
1028.34
1005.63
1033.44
1030.38
1061.36
1043.91
1030.25
1040.28
1047.39
1017.18
1067.07
977.296
1179.09
1003.42
972.914
1005.25
1037.68
1112.43
996.222
973.36
1022.35
1014.02
1025.25
1002.97
963.497
1085.67
1119.52
1031.61
1004.88
1007.71
1018.66
999.153
988.756
953.302
1042
1017.36
1025.44
984.84
1004.69
1033.54
1039.99
964.832
1047.84
959.348
1009.07
1008.8
1014.3
1016.94
1015.36
969.069
979.49
1017.78
1005.51
990.799
985.501
1121.74
1045.92
1000.62
1026.25
966.744
1041.11
