# vtk DataFile Version 3.0
Frame: 31, Time: 0.527
ASCII
DATASET UNSTRUCTURED_GRID
POINTS 64 double
0.725505 0.0332471 0 
0.692605 0.0370878 0 
0.723316 0.0525566 0 
0.699061 0.0578609 0 
0.661736 0.0442655 0 
0.636942 0.053316 0 
0.67439 0.0650226 0 
0.651173 0.0755323 0 
0.614585 0.0669734 0 
0.592384 0.0824101 0 
0.629721 0.0885109 0 
0.60839 0.102981 0 
0.572624 0.0970143 0 
0.55124 0.109763 0 
0.587987 0.11803 0 
0.565908 0.131596 0 
0.731578 0.0725693 0 
0.707285 0.0801399 0 
0.74582 0.0865759 0 
0.722177 0.0989907 0 
0.684869 0.0880006 0 
0.663155 0.0985664 0 
0.69961 0.109635 0 
0.677029 0.119755 0 
0.642448 0.111284 0 
0.622342 0.122901 0 
0.657782 0.132513 0 
0.637115 0.144946 0 
0.601733 0.136885 0 
0.581009 0.152327 0 
0.615251 0.157381 0 
0.59586 0.172908 0 
0.758765 0.105072 0 
0.73612 0.118673 0 
0.774207 0.124643 0 
0.750635 0.138868 0 
0.714759 0.130101 0 
0.692111 0.140847 0 
0.727734 0.150011 0 
0.705382 0.162598 0 
0.671369 0.154875 0 
0.650894 0.167613 0 
0.684762 0.175868 0 
0.664048 0.188266 0 
0.629151 0.179628 0 
0.609695 0.194689 0 
0.643442 0.201296 0 
0.624044 0.215847 0 
0.786021 0.144658 0 
0.762696 0.158515 0 
0.799065 0.16719 0 
0.776059 0.179624 0 
0.741726 0.170864 0 
0.720745 0.183628 0 
0.75535 0.192079 0 
0.733604 0.204189 0 
0.700229 0.196703 0 
0.678738 0.209158 0 
0.713536 0.217666 0 
0.694019 0.230595 0 
0.658204 0.223052 0 
0.637692 0.236996 0 
0.673226 0.244745 0 
0.651698 0.258356 0 
CELLS 64 128
1 0
1 1
1 2
1 3
1 4
1 5
1 6
1 7
1 8
1 9
1 10
1 11
1 12
1 13
1 14
1 15
1 16
1 17
1 18
1 19
1 20
1 21
1 22
1 23
1 24
1 25
1 26
1 27
1 28
1 29
1 30
1 31
1 32
1 33
1 34
1 35
1 36
1 37
1 38
1 39
1 40
1 41
1 42
1 43
1 44
1 45
1 46
1 47
1 48
1 49
1 50
1 51
1 52
1 53
1 54
1 55
1 56
1 57
1 58
1 59
1 60
1 61
1 62
1 63
CELL_TYPES 64
1
1
1
1
1
1
1
1
1
1
1
1
1
1
1
1
1
1
1
1
1
1
1
1
1
1
1
1
1
1
1
1
1
1
1
1
1
1
1
1
1
1
1
1
1
1
1
1
1
1
1
1
1
1
1
1
1
1
1
1
1
1
1
1
POINT_DATA 64
VECTORS displacement double
0.113005 -0.279253 0 
0.0801054 -0.300412 0 
0.0858159 -0.259943 0 
0.0615611 -0.279639 0 
0.0492358 -0.318235 0 
0.0244422 -0.334184 0 
0.0368903 -0.297477 0 
0.013673 -0.311968 0 
0.00208502 -0.345527 0 
-0.0201164 -0.35509 0 
-0.00777856 -0.323989 0 
-0.0291102 -0.334519 0 
-0.0398763 -0.365486 0 
-0.0612602 -0.377737 0 
-0.049513 -0.34447 0 
-0.0715923 -0.355904 0 
0.0690777 -0.239931 0 
0.044785 -0.25736 0 
0.0583205 -0.225924 0 
0.0346775 -0.238509 0 
0.0223688 -0.274499 0 
0.000655261 -0.288934 0 
0.0121099 -0.252865 0 
-0.0104712 -0.267745 0 
-0.0200524 -0.301216 0 
-0.0401577 -0.314599 0 
-0.0297179 -0.279987 0 
-0.0503853 -0.292554 0 
-0.0607666 -0.325615 0 
-0.0814911 -0.335173 0 
-0.0722491 -0.305119 0 
-0.09164 -0.314592 0 
0.046265 -0.207428 0 
0.0236202 -0.218827 0 
0.036707 -0.187857 0 
0.0131346 -0.198632 0 
0.00225909 -0.232399 0 
-0.0203893 -0.246653 0 
-0.00976569 -0.212489 0 
-0.0321179 -0.224902 0 
-0.0411306 -0.257625 0 
-0.0616064 -0.269887 0 
-0.0527381 -0.236632 0 
-0.073452 -0.249234 0 
-0.0833495 -0.282872 0 
-0.102805 -0.292811 0 
-0.0940581 -0.261204 0 
-0.113456 -0.271653 0 
0.023521 -0.167842 0 
0.000195642 -0.178985 0 
0.0115654 -0.14531 0 
-0.0114409 -0.157876 0 
-0.0207745 -0.191636 0 
-0.0417547 -0.203872 0 
-0.0321501 -0.170421 0 
-0.0538964 -0.183311 0 
-0.062271 -0.215797 0 
-0.0837616 -0.228342 0 
-0.0739639 -0.194834 0 
-0.0934805 -0.206905 0 
-0.104296 -0.239448 0 
-0.124808 -0.250504 0 
-0.114274 -0.217755 0 
-0.135802 -0.229144 0 
VECTORS velocity double
-1.15877 -0.172038 0 
-0.850524 -0.402095 0 
-0.808094 0.373344 0 
-0.958631 -0.146238 0 
-1.32292 -0.73353 0 
-1.67997 -0.462073 0 
-0.993076 -1.1438 0 
-1.3347 -1.12245 0 
-1.64877 -0.415444 0 
-1.37742 -1.14248 0 
-1.1231 -0.827897 0 
-1.19285 -0.707844 0 
-1.1691 -1.02329 0 
-1.34488 -0.622613 0 
-1.36881 -0.193656 0 
-1.07262 -0.774223 0 
-1.0935 -0.340541 0 
-1.71242 0.0542023 0 
-1.37294 -0.428767 0 
-1.57656 0.110265 0 
-1.47014 -0.558325 0 
-1.39808 -0.89028 0 
-1.78973 -0.327671 0 
-1.74213 -0.693109 0 
-1.21873 -0.769098 0 
-1.14539 -0.689019 0 
-1.65391 -0.577601 0 
-1.64843 -0.451729 0 
-1.1254 -0.717683 0 
-0.834157 -0.859846 0 
-1.30759 -0.751246 0 
-1.34894 -0.645735 0 
-1.33073 -0.838875 0 
-0.843422 -0.0372026 0 
-1.03793 -0.102238 0 
-1.07616 -0.153365 0 
-1.23713 -0.645498 0 
-1.20932 -0.907303 0 
-1.56735 -0.620297 0 
-1.68475 -0.64738 0 
-1.22972 -0.424451 0 
-1.19529 -0.525489 0 
-1.30127 -0.355718 0 
-1.00238 -0.640011 0 
-1.14774 -0.454195 0 
-0.966673 -0.530329 0 
-1.25198 -0.536877 0 
-0.938248 -0.469355 0 
-1.61807 -0.629893 0 
-1.67021 -0.0924302 0 
-1.38142 -0.310634 0 
-1.08667 -0.232799 0 
-1.29704 -0.33679 0 
-1.18342 -0.467531 0 
-1.12767 -0.281277 0 
-0.941601 -0.846073 0 
-1.23993 -0.610002 0 
-0.862622 -0.494912 0 
-0.570338 -0.473641 0 
-0.808145 -0.497051 0 
-0.741793 -0.408103 0 
-0.926079 -0.514167 0 
-0.91687 -0.779786 0 
-0.768764 -0.625201 0 
SCALARS mass double 1
LOOKUP_TABLE default
0.625
0.625
0.625
0.625
0.625
0.625
0.625
0.625
0.625
0.625
0.625
0.625
0.625
0.625
0.625
0.625
0.625
0.625
0.625
0.625
0.625
0.625
0.625
0.625
0.625
0.625
0.625
0.625
0.625
0.625
0.625
0.625
0.625
0.625
0.625
0.625
0.625
0.625
0.625
0.625
0.625
0.625
0.625
0.625
0.625
0.625
0.625
0.625
0.625
0.625
0.625
0.625
0.625
0.625
0.625
0.625
0.625
0.625
0.625
0.625
0.625
0.625
0.625
0.625
SCALARS volume double 1
LOOKUP_TABLE default
0.000468029
0.000519908
0.000568689
0.000593396
0.000579076
0.000602157
0.000620781
0.000629611
0.000607454
0.000616094
0.000639756
0.00063054
0.00064254
0.00060993
0.000619331
0.000651397
0.000495775
0.00054804
0.000552587
0.000591081
0.00057194
0.000603201
0.000645844
0.000594097
0.00060584
0.000618977
0.000622089
0.000642597
0.000585457
0.00062513
0.000626814
0.000634993
0.000593117
0.000594176
0.000607866
0.000598894
0.000579906
0.00061138
0.000589449
0.000641755
0.000631343
0.000607967
0.000612273
0.000590498
0.000613259
0.000614065
0.000622704
0.000624901
0.0006071
0.000593557
0.000625138
0.000610842
0.000611312
0.000614583
0.000608803
0.000604903
0.00059713
0.000622607
0.000609707
0.000614943
0.000619748
0.000629592
0.000631997
0.000613152
VECTORS momentum double
-0.724228 -0.107524 0 
-0.531577 -0.25131 0 
-0.505059 0.23334 0 
-0.599144 -0.0913985 0 
-0.826825 -0.458456 0 
-1.04998 -0.288795 0 
-0.620672 -0.714875 0 
-0.834188 -0.701532 0 
-1.03048 -0.259652 0 
-0.860885 -0.714051 0 
-0.701936 -0.517436 0 
-0.745532 -0.442403 0 
-0.73069 -0.639555 0 
-0.840553 -0.389133 0 
-0.855508 -0.121035 0 
-0.670389 -0.483889 0 
-0.68344 -0.212838 0 
-1.07026 0.0338765 0 
-0.858086 -0.26798 0 
-0.985347 0.0689154 0 
-0.918837 -0.348953 0 
-0.873801 -0.556425 0 
-1.11858 -0.204794 0 
-1.08883 -0.433193 0 
-0.761705 -0.480686 0 
-0.715871 -0.430637 0 
-1.03369 -0.361001 0 
-1.03027 -0.282331 0 
-0.703377 -0.448552 0 
-0.521348 -0.537404 0 
-0.817242 -0.469529 0 
-0.843086 -0.403584 0 
-0.831705 -0.524297 0 
-0.527139 -0.0232516 0 
-0.648704 -0.063899 0 
-0.672599 -0.0958528 0 
-0.773207 -0.403436 0 
-0.755826 -0.567065 0 
-0.979596 -0.387685 0 
-1.05297 -0.404613 0 
-0.768578 -0.265282 0 
-0.747058 -0.328431 0 
-0.813292 -0.222324 0 
-0.626486 -0.400007 0 
-0.717339 -0.283872 0 
-0.604171 -0.331455 0 
-0.782488 -0.335548 0 
-0.586405 -0.293347 0 
-1.0113 -0.393683 0 
-1.04388 -0.0577689 0 
-0.863385 -0.194146 0 
-0.67917 -0.145499 0 
-0.810649 -0.210494 0 
-0.739637 -0.292207 0 
-0.704792 -0.175798 0 
-0.588501 -0.528796 0 
-0.774959 -0.381251 0 
-0.539139 -0.30932 0 
-0.356461 -0.296026 0 
-0.50509 -0.310657 0 
-0.463621 -0.255064 0 
-0.578799 -0.321354 0 
-0.573044 -0.487366 0 
-0.480478 -0.390751 0 
VECTORS body_force double
0 -9.81 0 
0 -9.81 0 
0 -9.81 0 
0 -9.81 0 
0 -9.81 0 
0 -9.81 0 
0 -9.81 0 
0 -9.81 0 
0 -9.81 0 
0 -9.81 0 
0 -9.81 0 
0 -9.81 0 
0 -9.81 0 
0 -9.81 0 
0 -9.81 0 
0 -9.81 0 
0 -9.81 0 
0 -9.81 0 
0 -9.81 0 
0 -9.81 0 
0 -9.81 0 
0 -9.81 0 
0 -9.81 0 
0 -9.81 0 
0 -9.81 0 
0 -9.81 0 
0 -9.81 0 
0 -9.81 0 
0 -9.81 0 
0 -9.81 0 
0 -9.81 0 
0 -9.81 0 
0 -9.81 0 
0 -9.81 0 
0 -9.81 0 
0 -9.81 0 
0 -9.81 0 
0 -9.81 0 
0 -9.81 0 
0 -9.81 0 
0 -9.81 0 
0 -9.81 0 
0 -9.81 0 
0 -9.81 0 
0 -9.81 0 
0 -9.81 0 
0 -9.81 0 
0 -9.81 0 
0 -9.81 0 
0 -9.81 0 
0 -9.81 0 
0 -9.81 0 
0 -9.81 0 
0 -9.81 0 
0 -9.81 0 
0 -9.81 0 
0 -9.81 0 
0 -9.81 0 
0 -9.81 0 
0 -9.81 0 
0 -9.81 0 
0 -9.81 0 
0 -9.81 0 
0 -9.81 0 
TENSORS cauchy_stress double
9858.76 -16107.4 0
-16107.4 -65478.2 0
0 0 0

6122.27 -10784.5 0
-10784.5 -41526.2 0
0 0 0

-4548.8 52.346 0
52.346 -13608.6 0
0 0 0

-3227.44 4463 0
4463 -6751.41 0
0 0 0

7396.49 -3372.63 0
-3372.63 -22073.1 0
0 0 0

3163.96 1113.83 0
1113.83 -10324.3 0
0 0 0

-1512.98 1613.57 0
1613.57 210.396 0
0 0 0

-2953.73 779.749 0
779.749 4367.36 0
0 0 0

-2261.81 -1251.52 0
-1251.52 -3214.3 0
0 0 0

-1290.91 -877.777 0
-877.777 -1469.26 0
0 0 0

-1267.75 415.168 0
415.168 5755.32 0
0 0 0

1941.15 -130.159 0
-130.159 -243.919 0
0 0 0

133.739 790.261 0
790.261 5188.78 0
0 0 0

-2319.1 3008.7 0
3008.7 -2374.69 0
0 0 0

-2049.59 -1455.42 0
-1455.42 297.298 0
0 0 0

2583.28 2756.23 0
2756.23 5371.89 0
0 0 0

-10196.9 -6432.3 0
-6432.3 -34347.3 0
0 0 0

-4202.81 -93.3483 0
-93.3483 -21066.9 0
0 0 0

-3647.01 -8099.78 0
-8099.78 -20033.9 0
0 0 0

1899.85 2489.24 0
2489.24 -12630.2 0
0 0 0

-8111.74 6367.94 0
6367.94 -8949.31 0
0 0 0

-1967.57 3418.68 0
3418.68 -4859.61 0
0 0 0

5780.55 4953.73 0
4953.73 528.373 0
0 0 0

-2978.54 6549.42 0
6549.42 -6773.2 0
0 0 0

-5912.42 3917.61 0
3917.61 -75.2325 0
0 0 0

-867.196 2478.73 0
2478.73 -995.17 0
0 0 0

817.97 4498.16 0
4498.16 -1715.71 0
0 0 0

1076.85 3895.25 0
3895.25 4262.72 0
0 0 0

-7011.07 -1826.2 0
-1826.2 -5557.89 0
0 0 0

-436.694 229.699 0
229.699 476.583 0
0 0 0

1242.84 259.33 0
259.33 -685.584 0
0 0 0

-1142.3 560.099 0
560.099 4192.85 0
0 0 0

-3003.08 -4716.57 0
-4716.57 -7066.15 0
0 0 0

-2658.12 2653.77 0
2653.77 -7068.15 0
0 0 0

769.093 -3359.5 0
-3359.5 -6114.61 0
0 0 0

120.681 -2449.82 0
-2449.82 -8325.93 0
0 0 0

-2655.12 1840.58 0
1840.58 -11746 0
0 0 0

-1171.56 1222.98 0
1222.98 -3065.5 0
0 0 0

-1390.73 2672.46 0
2672.46 -9871.31 0
0 0 0

5519.94 3095.83 0
3095.83 -432.362 0
0 0 0

-2504.96 2296.62 0
2296.62 4446.71 0
0 0 0

-5625.06 95.0263 0
95.0263 311.263 0
0 0 0

-3409.5 4093.76 0
4093.76 -546.933 0
0 0 0

-464.917 3479.66 0
3479.66 -10455.4 0
0 0 0

-4918.58 2147.07 0
2147.07 1271.72 0
0 0 0

-4116.47 -1578.02 0
-1578.02 722.226 0
0 0 0

-2242.42 2980.25 0
2980.25 1534.63 0
0 0 0

1006.03 3536.12 0
3536.12 -1036.59 0
0 0 0

-2548.5 -859.168 0
-859.168 -3039.51 0
0 0 0

-2607.96 -1632.98 0
-1632.98 -7318.53 0
0 0 0

-100.551 -102.226 0
-102.226 142.859 0
0 0 0

524.506 2498.12 0
2498.12 -4931.02 0
0 0 0

-5331.37 4103.84 0
4103.84 1072.77 0
0 0 0

-183.662 646.808 0
646.808 -3048.66 0
0 0 0

-1399.41 1366.49 0
1366.49 -3649.92 0
0 0 0

-1637.64 2346.66 0
2346.66 -4647.82 0
0 0 0

-6693.62 -1372.69 0
-1372.69 -2078.93 0
0 0 0

-1249.17 959.914 0
959.914 511.515 0
0 0 0

-3289.94 3454.01 0
3454.01 -1474 0
0 0 0

-1191.84 3590.02 0
3590.02 -1927.94 0
0 0 0

-4565.81 2295.56 0
2295.56 2942.9 0
0 0 0

179.183 -1192.81 0
-1192.81 1228.71 0
0 0 0

2969.79 2836.12 0
2836.12 -828.894 0
0 0 0

-3621.63 -625.831 0
-625.831 -58.8201 0
0 0 0

TENSORS velocity_gradient double
-0.448463 -21.7553 0
1.30457 -4.53361 0
0 0 0

3.98009 -22.1033 0
6.55791 -6.71201 0
0 0 0

-0.152879 -10.0641 0
1.82624 -2.97404 0
0 0 0

2.03056 -7.41145 0
5.12935 -2.02037 0
0 0 0

4.63164 -23.4024 0
7.76727 -11.1824 0
0 0 0

3.5053 -3.81647 0
-0.060686 -3.44171 0
0 0 0

2.73058 -4.19855 0
8.5146 -1.61149 0
0 0 0

1.04978 -0.436269 0
5.7676 -1.23117 0
0 0 0

2.23301 3.78501 0
-0.158933 -0.905976 0
0 0 0

-2.29385 5.07344 0
0.433848 -0.663893 0
0 0 0

-0.108304 2.15011 0
-0.326657 -1.0231 0
0 0 0

-1.43231 1.86007 0
-0.223249 1.94393 0
0 0 0

-1.37528 2.97791 0
0.286661 0.17136 0
0 0 0

2.6449 1.06367 0
-3.16312 0.50574 0
0 0 0

-0.931355 1.6818 0
0.951645 1.8297 0
0 0 0

-0.817384 1.49608 0
1.55533 0.846006 0
0 0 0

1.83133 -4.6789 0
1.65384 -2.45934 0
0 0 0

2.66708 -7.32988 0
1.55393 -2.14242 0
0 0 0

1.80471 -3.06493 0
-0.229155 -2.30925 0
0 0 0

4.26125 -3.01235 0
1.54649 -2.35086 0
0 0 0

-1.10461 -5.9693 0
8.12046 -1.79347 0
0 0 0

-2.28641 -1.46681 0
7.53645 -0.0495059 0
0 0 0

1.43887 1.34393 0
3.79609 -3.38777 0
0 0 0

-1.85269 0.460821 0
4.60583 -0.557605 0
0 0 0

-1.98663 -0.821444 0
0.0312724 3.86063 0
0 0 0

-2.67233 0.371304 0
0.427396 3.14842 0
0 0 0

-1.10792 -0.659374 0
2.51405 2.58865 0
0 0 0

-3.81462 0.415586 0
1.1828 3.35169 0
0 0 0

-2.78022 1.4858 0
1.15129 2.39937 0
0 0 0

-0.44073 0.738631 0
2.55055 0.408064 0
0 0 0

-3.29567 3.30372 0
1.43383 1.2452 0
0 0 0

0.0327642 1.31156 0
3.19628 0.836562 0
0 0 0

-0.857034 -1.41411 0
-2.26759 -0.026053 0
0 0 0

3.66597 -0.531657 0
2.68182 -1.35531 0
0 0 0

-1.04789 -1.61768 0
-1.29054 0.751648 0
0 0 0

0.0391524 -1.20949 0
1.02118 -0.406786 0
0 0 0

2.97497 0.745628 0
3.51941 -2.90357 0
0 0 0

-0.627174 1.33736 0
1.16378 -3.01951 0
0 0 0

1.76456 2.8355 0
4.54774 -1.45699 0
0 0 0

0.954412 6.76989 0
4.24613 0.15316 0
0 0 0

-0.157284 6.77624 0
-0.294691 1.02104 0
0 0 0

-0.786459 7.01208 0
0.0862004 1.42996 0
0 0 0

-0.156514 7.21901 0
-0.784991 0.792139 0
0 0 0

-0.170103 7.24187 0
-1.04017 1.22147 0
0 0 0

-0.677283 4.93581 0
1.62524 1.3645 0
0 0 0

1.02507 2.61716 0
1.70069 1.14907 0
0 0 0

1.37484 4.31496 0
1.364 -0.318677 0
0 0 0

1.94605 2.73919 0
0.753543 -0.102332 0
0 0 0

-1.32644 -1.35309 0
-0.332521 1.27157 0
0 0 0

-1.74333 3.37272 0
0.607593 -0.962418 0
0 0 0

-1.9519 1.8886 0
0.237106 1.62145 0
0 0 0

-2.62405 2.81639 0
2.34288 0.133714 0
0 0 0

0.426718 4.41448 0
3.82098 -1.74453 0
0 0 0

-0.407854 5.78109 0
3.14859 -0.643491 0
0 0 0

-3.14683 3.68507 0
3.37292 -1.57785 0
0 0 0

-1.11559 5.44172 0
2.31879 -1.05666 0
0 0 0

-0.701387 6.11597 0
1.0794 0.0221468 0
0 0 0

-0.0636025 3.53837 0
-1.09176 -1.13772 0
0 0 0

-0.532257 4.50906 0
2.18286 -0.870275 0
0 0 0

0.191135 3.74689 0
-0.429392 -0.871651 0
0 0 0

0.106527 3.28632 0
-0.834512 -1.51883 0
0 0 0

2.31523 2.97576 0
-0.592532 -0.964897 0
0 0 0

0.421595 3.69592 0
-0.431215 -1.17092 0
0 0 0

1.95863 3.49645 0
-0.334905 -1.20096 0
0 0 0

SCALARS active double 1
LOOKUP_TABLE default
1
1
1
1
1
1
1
1
1
1
1
1
1
1
1
1
1
1
1
1
1
1
1
1
1
1
1
1
1
1
1
1
1
1
1
1
1
1
1
1
1
1
1
1
1
1
1
1
1
1
1
1
1
1
1
1
1
1
1
1
1
1
1
1
SCALARS extent double 1
LOOKUP_TABLE default
0.0125
0.0125
0.0125
0.0125
0.0125
0.0125
0.0125
0.0125
0.0125
0.0125
0.0125
0.0125
0.0125
0.0125
0.0125
0.0125
0.0125
0.0125
0.0125
0.0125
0.0125
0.0125
0.0125
0.0125
0.0125
0.0125
0.0125
0.0125
0.0125
0.0125
0.0125
0.0125
0.0125
0.0125
0.0125
0.0125
0.0125
0.0125
0.0125
0.0125
0.0125
0.0125
0.0125
0.0125
0.0125
0.0125
0.0125
0.0125
0.0125
0.0125
0.0125
0.0125
0.0125
0.0125
0.0125
0.0125
0.0125
0.0125
0.0125
0.0125
0.0125
0.0125
0.0125
0.0125
SCALARS pressure double 1
LOOKUP_TABLE default
27809.7
17702
9078.72
4989.42
7338.3
3580.18
651.29
-706.818
2738.06
1380.09
-2243.78
-848.615
-2661.26
2346.89
876.147
-3977.59
22272.1
12634.9
11840.5
5365.17
8530.53
3413.59
-3154.46
4875.87
2993.82
931.183
448.869
-2669.79
6284.48
-19.9445
-278.627
-1525.28
5034.62
4863.14
2672.76
4102.62
7200.57
2118.53
5631.02
-2543.79
-970.874
2656.9
1978.22
5460.14
1823.43
1697.12
353.895
15.2811
2794.01
4963.25
-21.1543
2203.26
2129.3
1616.16
2524.66
3142.73
4386.27
368.826
2381.97
1559.89
811.452
-703.948
-1070.45
1840.22
SCALARS density double 1
LOOKUP_TABLE default
1335.39
1202.14
1099.02
1053.26
1079.31
1037.94
1006.8
992.676
1028.89
1014.46
976.935
991.213
972.702
1024.71
1009.15
959.477
1260.65
1140.43
1131.04
1057.38
1092.77
1036.14
967.726
1052.02
1031.63
1009.73
1004.68
972.616
1067.54
999.793
997.106
984.262
1053.76
1051.88
1028.19
1043.59
1077.76
1022.28
1060.31
973.891
989.954
1028.02
1020.79
1058.43
1019.14
1017.81
1003.69
1000.16
1029.48
1052.97
999.78
1023.18
1022.39
1016.95
1026.6
1033.22
1046.67
1003.84
1025.08
1016.36
1008.47
992.706
988.929
1019.32
