# vtk DataFile Version 3.0
Frame: 21, Time: 0.357
ASCII
DATASET UNSTRUCTURED_GRID
POINTS 64 double
0.983445 0.0723781 0 
0.960621 0.0606858 0 
0.972635 0.0951866 0 
0.950619 0.0836201 0 
0.933725 0.0529002 0 
0.909441 0.0455252 0 
0.924076 0.0760684 0 
0.899689 0.0688194 0 
0.881653 0.0393531 0 
0.852104 0.0362333 0 
0.874946 0.0614351 0 
0.848301 0.0578655 0 
0.824136 0.0330472 0 
0.793325 0.0290113 0 
0.82273 0.0528013 0 
0.793836 0.04526 0 
0.961732 0.118792 0 
0.940531 0.106918 0 
0.952907 0.142138 0 
0.930715 0.130485 0 
0.916479 0.0991625 0 
0.891626 0.0915046 0 
0.906512 0.121838 0 
0.882339 0.113308 0 
0.865956 0.084146 0 
0.841155 0.0797266 0 
0.857814 0.106874 0 
0.831637 0.1015 0 
0.816972 0.0736586 0 
0.790425 0.0652196 0 
0.806852 0.0933809 0 
0.782405 0.084232 0 
0.941476 0.164986 0 
0.919188 0.152164 0 
0.930222 0.187606 0 
0.90805 0.175462 0 
0.894938 0.144146 0 
0.871244 0.135594 0 
0.884301 0.166362 0 
0.859639 0.15804 0 
0.846443 0.12909 0 
0.821131 0.123394 0 
0.835719 0.151061 0 
0.810918 0.144289 0 
0.796353 0.114472 0 
0.772109 0.10452 0 
0.786419 0.136084 0 
0.762738 0.125852 0 
0.918705 0.209658 0 
0.897383 0.197928 0 
0.9068 0.232544 0 
0.886471 0.220327 0 
0.874349 0.188243 0 
0.849906 0.18116 0 
0.864793 0.211396 0 
0.841056 0.204596 0 
0.825795 0.173839 0 
0.800852 0.165876 0 
0.817093 0.196979 0 
0.791671 0.18902 0 
0.776117 0.158052 0 
0.752934 0.146978 0 
0.765413 0.180452 0 
0.742044 0.169104 0 
CELLS 64 128
1 0
1 1
1 2
1 3
1 4
1 5
1 6
1 7
1 8
1 9
1 10
1 11
1 12
1 13
1 14
1 15
1 16
1 17
1 18
1 19
1 20
1 21
1 22
1 23
1 24
1 25
1 26
1 27
1 28
1 29
1 30
1 31
1 32
1 33
1 34
1 35
1 36
1 37
1 38
1 39
1 40
1 41
1 42
1 43
1 44
1 45
1 46
1 47
1 48
1 49
1 50
1 51
1 52
1 53
1 54
1 55
1 56
1 57
1 58
1 59
1 60
1 61
1 62
1 63
CELL_TYPES 64
1
1
1
1
1
1
1
1
1
1
1
1
1
1
1
1
1
1
1
1
1
1
1
1
1
1
1
1
1
1
1
1
1
1
1
1
1
1
1
1
1
1
1
1
1
1
1
1
1
1
1
1
1
1
1
1
1
1
1
1
1
1
1
1
POINT_DATA 64
VECTORS displacement double
0.370945 -0.240122 0 
0.348121 -0.276814 0 
0.335135 -0.217313 0 
0.313119 -0.25388 0 
0.321225 -0.3096 0 
0.296941 -0.341975 0 
0.286576 -0.286432 0 
0.262189 -0.318681 0 
0.269153 -0.373147 0 
0.239604 -0.401267 0 
0.237446 -0.351065 0 
0.210801 -0.379635 0 
0.211636 -0.429453 0 
0.180825 -0.458489 0 
0.18523 -0.409699 0 
0.156336 -0.44224 0 
0.299232 -0.193708 0 
0.278031 -0.230582 0 
0.265407 -0.170362 0 
0.243215 -0.207015 0 
0.253979 -0.263338 0 
0.229126 -0.295995 0 
0.219012 -0.240662 0 
0.194839 -0.274192 0 
0.203456 -0.328354 0 
0.178655 -0.357773 0 
0.170314 -0.305626 0 
0.144137 -0.336 0 
0.154472 -0.388841 0 
0.127925 -0.42228 0 
0.119352 -0.369119 0 
0.0949053 -0.403268 0 
0.228976 -0.147514 0 
0.206688 -0.185336 0 
0.192722 -0.124894 0 
0.17055 -0.162038 0 
0.182438 -0.218354 0 
0.158744 -0.251906 0 
0.146801 -0.196138 0 
0.122139 -0.22946 0 
0.133943 -0.28341 0 
0.108631 -0.314106 0 
0.0982186 -0.261439 0 
0.0734178 -0.293211 0 
0.083853 -0.348028 0 
0.0596093 -0.38298 0 
0.0489195 -0.326416 0 
0.0252382 -0.361648 0 
0.156205 -0.102842 0 
0.134883 -0.139572 0 
0.1193 -0.0799561 0 
0.0989713 -0.117173 0 
0.111849 -0.174257 0 
0.0874057 -0.20634 0 
0.0772929 -0.151104 0 
0.0535561 -0.182904 0 
0.0632946 -0.238661 0 
0.0383517 -0.271624 0 
0.029593 -0.215521 0 
0.00417116 -0.24848 0 
0.013617 -0.304448 0 
-0.00956636 -0.340522 0 
-0.0220873 -0.282048 0 
-0.0454565 -0.318396 0 
VECTORS velocity double
-1.28387 0.259748 0 
-1.71574 0.687749 0 
-0.594638 0.537838 0 
-1.17934 0.942078 0 
-1.6385 1.3777 0 
-0.452183 0.650441 0 
-1.29593 1.25822 0 
-1.33085 1.2065 0 
0.309638 0.325689 0 
0.126127 0.257463 0 
-1.0873 1.15878 0 
-1.0132 1.1176 0 
0.930842 0.407532 0 
0.820678 0.34341 0 
-0.626726 1.53127 0 
-0.389009 1.363 0 
-0.313798 0.333027 0 
-0.688094 1.33991 0 
0.237189 0.784769 0 
0.142658 1.19936 0 
-0.71132 1.26441 0 
-0.752084 1.30219 0 
-0.446973 1.42161 0 
-0.413947 1.46072 0 
-0.329203 1.17246 0 
-0.110674 1.06205 0 
0.162676 1.55613 0 
0.380055 1.64343 0 
-0.0931811 1.25716 0 
0.0250361 2.22933 0 
0.449213 1.57395 0 
0.663701 2.63921 0 
0.714621 0.646309 0 
0.66143 1.1739 0 
1.28624 1.07238 0 
0.674746 1.58281 0 
0.296617 1.6846 0 
0.384601 1.75055 0 
0.499969 1.96176 0 
0.400795 1.89731 0 
0.67536 1.79001 0 
0.747797 1.81296 0 
0.753709 1.95213 0 
0.854662 1.90954 0 
0.748554 2.13152 0 
1.0274 2.8605 0 
0.572286 2.59065 0 
0.495666 2.63225 0 
1.1174 0.734281 0 
1.32803 1.56258 0 
1.51893 1.65059 0 
1.6792 1.75021 0 
1.30575 1.76637 0 
1.37224 2.09717 0 
1.77704 2.14569 0 
1.83882 2.3222 0 
1.24287 2.231 0 
1.39076 2.14651 0 
1.90721 2.60625 0 
2.22386 2.43451 0 
1.47083 2.78043 0 
1.07405 2.84437 0 
1.76409 2.88494 0 
1.56122 3.54933 0 
SCALARS mass double 1
LOOKUP_TABLE default
0.625
0.625
0.625
0.625
0.625
0.625
0.625
0.625
0.625
0.625
0.625
0.625
0.625
0.625
0.625
0.625
0.625
0.625
0.625
0.625
0.625
0.625
0.625
0.625
0.625
0.625
0.625
0.625
0.625
0.625
0.625
0.625
0.625
0.625
0.625
0.625
0.625
0.625
0.625
0.625
0.625
0.625
0.625
0.625
0.625
0.625
0.625
0.625
0.625
0.625
0.625
0.625
0.625
0.625
0.625
0.625
0.625
0.625
0.625
0.625
0.625
0.625
0.625
0.625
SCALARS volume double 1
LOOKUP_TABLE default
0.00063568
0.000660334
0.000613064
0.00064552
0.000644512
0.000602378
0.000624718
0.000617034
0.000530794
0.000500622
0.000638434
0.000614608
0.000449026
0.000401761
0.000616294
0.000593968
0.000602461
0.000644847
0.000626211
0.000625458
0.000604928
0.00059832
0.000642392
0.000602335
0.000604389
0.000564137
0.000641409
0.00061166
0.000541519
0.000557831
0.000580081
0.000554803
0.000632147
0.000617997
0.000615916
0.000635062
0.000614201
0.000600389
0.000618593
0.000628899
0.000601046
0.000619894
0.000616693
0.000581384
0.000614425
0.000593109
0.000590118
0.000591897
0.000568155
0.000595821
0.000572772
0.000587127
0.000602191
0.000615706
0.000603654
0.000609105
0.000626464
0.000626854
0.000624019
0.000657192
0.00062501
0.000593232
0.000622188
0.000635329
VECTORS momentum double
-0.802421 0.162343 0 
-1.07234 0.429843 0 
-0.371648 0.336149 0 
-0.737088 0.588799 0 
-1.02406 0.861063 0 
-0.282615 0.406526 0 
-0.809959 0.786385 0 
-0.831784 0.754064 0 
0.193524 0.203555 0 
0.0788295 0.160914 0 
-0.679563 0.724239 0 
-0.63325 0.698499 0 
0.581776 0.254708 0 
0.512924 0.214632 0 
-0.391704 0.957041 0 
-0.243131 0.851875 0 
-0.196124 0.208142 0 
-0.430059 0.837446 0 
0.148243 0.49048 0 
0.0891614 0.749598 0 
-0.444575 0.790257 0 
-0.470053 0.813872 0 
-0.279358 0.888504 0 
-0.258717 0.91295 0 
-0.205752 0.732787 0 
-0.0691712 0.663782 0 
0.101672 0.972578 0 
0.237534 1.02714 0 
-0.0582382 0.785728 0 
0.0156475 1.39333 0 
0.280758 0.983719 0 
0.414813 1.64951 0 
0.446638 0.403943 0 
0.413394 0.733686 0 
0.8039 0.670235 0 
0.421716 0.989257 0 
0.185385 1.05287 0 
0.240375 1.09409 0 
0.312481 1.2261 0 
0.250497 1.18582 0 
0.4221 1.11876 0 
0.467373 1.1331 0 
0.471068 1.22008 0 
0.534164 1.19346 0 
0.467846 1.3322 0 
0.642122 1.78781 0 
0.357679 1.61915 0 
0.309791 1.64515 0 
0.698375 0.458925 0 
0.830018 0.976609 0 
0.949333 1.03162 0 
1.0495 1.09388 0 
0.816092 1.10398 0 
0.857648 1.31073 0 
1.11065 1.34106 0 
1.14926 1.45138 0 
0.776791 1.39437 0 
0.869225 1.34157 0 
1.192 1.62891 0 
1.38991 1.52157 0 
0.919268 1.73777 0 
0.671279 1.77773 0 
1.10255 1.80309 0 
0.975761 2.21833 0 
VECTORS body_force double
0 -9.81 0 
0 -9.81 0 
0 -9.81 0 
0 -9.81 0 
0 -9.81 0 
0 -9.81 0 
0 -9.81 0 
0 -9.81 0 
0 -9.81 0 
0 -9.81 0 
0 -9.81 0 
0 -9.81 0 
0 -9.81 0 
0 -9.81 0 
0 -9.81 0 
0 -9.81 0 
0 -9.81 0 
0 -9.81 0 
0 -9.81 0 
0 -9.81 0 
0 -9.81 0 
0 -9.81 0 
0 -9.81 0 
0 -9.81 0 
0 -9.81 0 
0 -9.81 0 
0 -9.81 0 
0 -9.81 0 
0 -9.81 0 
0 -9.81 0 
0 -9.81 0 
0 -9.81 0 
0 -9.81 0 
0 -9.81 0 
0 -9.81 0 
0 -9.81 0 
0 -9.81 0 
0 -9.81 0 
0 -9.81 0 
0 -9.81 0 
0 -9.81 0 
0 -9.81 0 
0 -9.81 0 
0 -9.81 0 
0 -9.81 0 
0 -9.81 0 
0 -9.81 0 
0 -9.81 0 
0 -9.81 0 
0 -9.81 0 
0 -9.81 0 
0 -9.81 0 
0 -9.81 0 
0 -9.81 0 
0 -9.81 0 
0 -9.81 0 
0 -9.81 0 
0 -9.81 0 
0 -9.81 0 
0 -9.81 0 
0 -9.81 0 
0 -9.81 0 
0 -9.81 0 
0 -9.81 0 
TENSORS cauchy_stress double
702.495 2719.99 0
2719.99 2555.85 0
0 0 0

7853.65 1130.15 0
1130.15 2722.05 0
0 0 0

-2982.7 62.8818 0
62.8818 -725.364 0
0 0 0

4901.09 -649.836 0
-649.836 1311.3 0
0 0 0

6204.91 -2246.69 0
-2246.69 -292.894 0
0 0 0

4776.94 -533.937 0
-533.937 -11866.8 0
0 0 0

4410.87 -4639.71 0
-4639.71 -4497.54 0
0 0 0

1100.02 -5481.97 0
-5481.97 -3566.92 0
0 0 0

-1918.46 7025.84 0
7025.84 -29500.4 0
0 0 0

-3162.4 4812.34 0
4812.34 -39510.6 0
0 0 0

7467.22 -4415.7 0
-4415.7 -3377.49 0
0 0 0

2686.94 -2624.2 0
-2624.2 -5911.47 0
0 0 0

-8211.13 7091.46 0
7091.46 -55379.3 0
0 0 0

-8898.37 10152.9 0
10152.9 -76081.5 0
0 0 0

3893.28 1845.89 0
1845.89 -6590.86 0
0 0 0

10528.4 7878.63 0
7878.63 -20321.9 0
0 0 0

-8864.43 983.344 0
983.344 1801.28 0
0 0 0

2715.92 474.511 0
474.511 3295.98 0
0 0 0

-2246.45 -130.058 0
-130.058 2618.6 0
0 0 0

717.103 180.44 0
180.44 -576.317 0
0 0 0

-246.56 -2098.61 0
-2098.61 -6030.89 0
0 0 0

895.736 3325.22 0
3325.22 -9285.25 0
0 0 0

7366.6 -5595.96 0
-5595.96 -2088.34 0
0 0 0

667.762 -3993.19 0
-3993.19 -7771.16 0
0 0 0

1127.59 -3327.92 0
-3327.92 -7576.38 0
0 0 0

-4174.67 -4342.95 0
-4342.95 -15528.2 0
0 0 0

9341.28 -5755.77 0
-5755.77 -4357.51 0
0 0 0

5554.74 -4253.81 0
-4253.81 -9703.94 0
0 0 0

-5635.21 832.822 0
832.822 -21936.5 0
0 0 0

1490.2 5257.78 0
5257.78 -23354.9 0
0 0 0

162.33 1533.11 0
1533.11 -14505.3 0
0 0 0

-3624.49 1411.81 0
1411.81 -19286.7 0
0 0 0

-530.765 2208.51 0
2208.51 2717.43 0
0 0 0

-606.76 -1142.71 0
-1142.71 -1560.13 0
0 0 0

-4001.64 2891.81 0
2891.81 1186.1 0
0 0 0

2184.92 -2479.82 0
-2479.82 886.318 0
0 0 0

3028.31 -2925.25 0
-2925.25 -6380.15 0
0 0 0

1311.87 -4974.17 0
-4974.17 -9037.55 0
0 0 0

3583.1 -858.481 0
-858.481 -5564.74 0
0 0 0

3265.38 -4131.61 0
-4131.61 -2069.26 0
0 0 0

3496.7 -6117.27 0
-6117.27 -11012.2 0
0 0 0

8127.59 -5527.79 0
-5527.79 -9705.26 0
0 0 0

3562.13 -7539.96 0
-7539.96 -6135.14 0
0 0 0

450.207 49.8536 0
49.8536 -14361.8 0
0 0 0

1786.04 -1017.41 0
-1017.41 -5067.6 0
0 0 0

-2259.08 2927.54 0
2927.54 -7812.82 0
0 0 0

-1323.85 47.9825 0
47.9825 -9720.24 0
0 0 0

-6709.68 4855.25 0
4855.25 -3755.53 0
0 0 0

-11880.4 -3580.06 0
-3580.06 -6457.52 0
0 0 0

-4267.94 1717.38 0
1717.38 -4926.61 0
0 0 0

-14740.8 -3571.91 0
-3571.91 -2040.65 0
0 0 0

-9612.45 -2092.52 0
-2092.52 -2408.81 0
0 0 0

729.662 -3617.59 0
-3617.59 -7878.96 0
0 0 0

1156.61 -1801.71 0
-1801.71 -4037.78 0
0 0 0

-2839.83 -3927.4 0
-3927.4 -3842.95 0
0 0 0

-3024.21 -1612.64 0
-1612.64 -1929.79 0
0 0 0

4477.2 -1337.23 0
-1337.23 -4027.14 0
0 0 0

4442.76 -2835.61 0
-2835.61 -3873.21 0
0 0 0

282.85 2141.78 0
2141.78 -584.946 0
0 0 0

10826.6 1097.87 0
1097.87 -1167.99 0
0 0 0

3380.83 -1860.11 0
-1860.11 -3377.76 0
0 0 0

-4294.49 3921.24 0
3921.24 -5737.33 0
0 0 0

722.59 2180.28 0
2180.28 -1589.87 0
0 0 0

1765.31 1112.41 0
1112.41 1386.77 0
0 0 0

TENSORS velocity_gradient double
-0.352758 13.7467 0
-11.8546 -0.579513 0
0 0 0

-0.567026 13.3407 0
-11.7507 -0.382504 0
0 0 0

0.0228905 13.9321 0
-12.062 -0.623317 0
0 0 0

-2.5681 12.7289 0
-8.99166 0.0889888 0
0 0 0

-11.78 -1.62563 0
0.818059 8.14248 0
0 0 0

-11.5526 -15.873 0
1.32768 17.5961 0
0 0 0

-8.14636 8.09831 0
-2.71427 4.03482 0
0 0 0

-9.82152 4.02905 0
-1.4163 7.86049 0
0 0 0

-6.5027 -11.9074 0
-0.580336 18.4495 0
0 0 0

-5.63237 -6.96038 0
-2.12315 19.1759 0
0 0 0

-9.38406 5.37832 0
-1.10874 9.17499 0
0 0 0

-7.92406 7.73865 0
-5.52558 10.2228 0
0 0 0

-4.41519 -2.9813 0
-5.11464 23.0116 0
0 0 0

-5.31356 1.59785 0
-10.7519 29.4123 0
0 0 0

-6.7418 4.83375 0
-7.81592 16.0525 0
0 0 0

-8.25394 1.65753 0
-16.7065 28.9273 0
0 0 0

-1.0085 20.7427 0
-12.7484 -2.43452 0
0 0 0

-3.02091 21.0175 0
-7.81594 -0.723004 0
0 0 0

-2.40364 21.19 0
-13.3327 -1.92279 0
0 0 0

-2.41992 21.0572 0
-11.0382 0.634352 0
0 0 0

-3.91093 11.3231 0
-6.59273 4.41294 0
0 0 0

-12.1621 3.82094 0
-2.13385 8.60032 0
0 0 0

-2.63509 20.4736 0
-9.82179 3.93351 0
0 0 0

-11.4694 17.9473 0
-3.59749 6.51795 0
0 0 0

-11.4782 6.23666 0
-1.88148 9.49172 0
0 0 0

-8.4352 8.24327 0
-9.81538 10.638 0
0 0 0

-12.2449 14.0927 0
-3.00841 8.93152 0
0 0 0

-9.37634 10.8377 0
-10.7521 9.59841 0
0 0 0

-8.084 9.61466 0
-9.39891 12.2642 0
0 0 0

-7.90079 9.45759 0
-17.4699 12.2262 0
0 0 0

-9.17607 10.201 0
-10.6939 12.9595 0
0 0 0

-5.79511 8.52721 0
-15.2547 11.2474 0
0 0 0

-1.20869 17.8338 0
-13.3205 0.207038 0
0 0 0

-1.80398 18.458 0
-13.3587 0.607748 0
0 0 0

-0.066081 17.2411 0
-12.4428 -0.248184 0
0 0 0

-0.698176 16.1238 0
-12.9283 -1.10638 0
0 0 0

-6.95781 19.5369 0
-6.96171 5.34545 0
0 0 0

-8.48931 16.3827 0
-5.69749 7.62049 0
0 0 0

-6.30455 15.7365 0
-8.60415 0.156908 0
0 0 0

-6.32019 15.7018 0
-7.80413 2.52183 0
0 0 0

-8.89913 13.5506 0
-8.00057 9.00969 0
0 0 0

-8.97911 12.6368 0
-9.19883 6.77914 0
0 0 0

-8.02055 13.7673 0
-6.84978 6.20489 0
0 0 0

-8.33062 12.3056 0
-7.21463 5.76557 0
0 0 0

-3.9771 11.6983 0
-12.7024 4.91704 0
0 0 0

-3.75964 9.28557 0
-13.3957 6.57371 0
0 0 0

-1.71618 11.1007 0
-13.2346 4.85184 0
0 0 0

-2.35983 9.65178 0
-13.205 4.91846 0
0 0 0

-5.90018 -4.93429 0
-15.2997 -2.59604 0
0 0 0

-5.08878 14.039 0
-11.6295 0.0872718 0
0 0 0

-22.2739 4.1107 0
-23.5316 2.09091 0
0 0 0

-4.91481 7.60192 0
-10.8407 3.60327 0
0 0 0

-6.28001 15.7248 0
-10.6496 1.13032 0
0 0 0

-6.20114 15.45 0
-8.13658 3.13804 0
0 0 0

-5.57918 6.02339 0
-11.3737 2.33688 0
0 0 0

-4.53853 7.52277 0
-7.17456 2.02237 0
0 0 0

-6.64142 14.0033 0
-6.81648 3.72638 0
0 0 0

-3.93831 12.6624 0
-9.80312 3.89109 0
0 0 0

-5.10457 12.5984 0
-7.17844 3.66429 0
0 0 0

-1.81347 12.6671 0
-11.2034 3.56342 0
0 0 0

-0.917509 12.9522 0
-12.9465 2.83928 0
0 0 0

-2.57326 9.25083 0
-12.4359 5.61944 0
0 0 0

-1.54795 13.4534 0
-11.7065 2.07342 0
0 0 0

-2.14077 12.1104 0
-12.0673 0.636623 0
0 0 0

SCALARS active double 1
LOOKUP_TABLE default
1
1
1
1
1
1
1
1
1
1
1
1
1
1
1
1
1
1
1
1
1
1
1
1
1
1
1
1
1
1
1
1
1
1
1
1
1
1
1
1
1
1
1
1
1
1
1
1
1
1
1
1
1
1
1
1
1
1
1
1
1
1
1
1
SCALARS extent double 1
LOOKUP_TABLE default
0.0125
0.0125
0.0125
0.0125
0.0125
0.0125
0.0125
0.0125
0.0125
0.0125
0.0125
0.0125
0.0125
0.0125
0.0125
0.0125
0.0125
0.0125
0.0125
0.0125
0.0125
0.0125
0.0125
0.0125
0.0125
0.0125
0.0125
0.0125
0.0125
0.0125
0.0125
0.0125
0.0125
0.0125
0.0125
0.0125
0.0125
0.0125
0.0125
0.0125
0.0125
0.0125
0.0125
0.0125
0.0125
0.0125
0.0125
0.0125
0.0125
0.0125
0.0125
0.0125
0.0125
0.0125
0.0125
0.0125
0.0125
0.0125
0.0125
0.0125
0.0125
0.0125
0.0125
0.0125
SCALARS pressure double 1
LOOKUP_TABLE default
-1629.17
-5287.85
1854.03
-3106.19
-2956.01
3544.91
43.335
1233.45
15709.4
21336.5
-2044.87
1612.26
31795.2
42489.9
1348.79
4896.73
3531.57
-3005.95
-186.078
-70.3927
3138.72
4194.76
-2639.13
3551.7
3224.4
9851.43
-2491.88
2074.6
13785.9
10932.3
7171.5
11455.6
-1093.33
1083.45
1407.77
-1535.62
1675.92
3862.84
990.818
-598.059
3757.77
788.837
1286.5
6955.8
1640.78
5035.95
5522.05
5232.61
9168.98
4597.27
8390.73
6010.63
3574.65
1440.59
3341.39
2477
-225.033
-284.774
151.048
-4829.32
-1.53737
5015.91
433.639
-1576.04
SCALARS density double 1
LOOKUP_TABLE default
983.199
946.491
1019.47
968.212
969.725
1037.56
1000.45
1012.91
1177.48
1248.45
978.958
1016.91
1391.9
1555.65
1014.13
1052.25
1037.41
969.222
998.067
999.268
1033.18
1044.59
972.926
1037.63
1034.1
1107.89
974.417
1021.81
1154.16
1120.41
1077.44
1126.53
988.694
1011.33
1014.75
984.156
1017.58
1040.99
1010.36
993.799
1039.85
1008.24
1013.47
1075.02
1017.21
1053.77
1059.11
1055.93
1100.05
1048.97
1091.18
1064.51
1037.88
1015.09
1035.36
1026.1
997.662
997.043
1001.57
951.015
999.984
1053.55
1004.52
983.743
