# vtk DataFile Version 3.0
Frame: 41, Time: 0.697
ASCII
DATASET UNSTRUCTURED_GRID
POINTS 64 double
0.146275 0.423515 0 
0.161185 0.403569 0 
0.126043 0.408885 0 
0.141594 0.389345 0 
0.175756 0.382732 0 
0.192103 0.361944 0 
0.155931 0.36802 0 
0.171277 0.347605 0 
0.205199 0.341099 0 
0.21998 0.32029 0 
0.185325 0.326241 0 
0.200598 0.305108 0 
0.235148 0.301186 0 
0.250431 0.279898 0 
0.215163 0.285494 0 
0.231803 0.265053 0 
0.105851 0.395048 0 
0.120534 0.373863 0 
0.0856977 0.380052 0 
0.100701 0.359642 0 
0.13517 0.353405 0 
0.14993 0.332495 0 
0.115002 0.338474 0 
0.129884 0.318177 0 
0.16397 0.312393 0 
0.179263 0.291755 0 
0.143823 0.296712 0 
0.158828 0.276367 0 
0.193433 0.270979 0 
0.208781 0.250231 0 
0.173962 0.255114 0 
0.18866 0.236459 0 
0.064879 0.365373 0 
0.079908 0.344888 0 
0.0446437 0.35067 0 
0.0591147 0.329944 0 
0.09418 0.32382 0 
0.109342 0.303135 0 
0.0732868 0.309749 0 
0.0885682 0.28867 0 
0.123766 0.283181 0 
0.138293 0.26265 0 
0.103675 0.268636 0 
0.117779 0.248095 0 
0.153237 0.241744 0 
0.168307 0.222755 0 
0.13307 0.226755 0 
0.147882 0.207401 0 
0.0232947 0.336217 0 
0.0388069 0.316151 0 
0.00289433 0.321697 0 
0.0184488 0.300519 0 
0.0526746 0.295036 0 
0.0684415 0.274199 0 
0.0319788 0.279288 0 
0.048434 0.259563 0 
0.0829439 0.253986 0 
0.0973472 0.234319 0 
0.0620917 0.239316 0 
0.0761309 0.218781 0 
0.112017 0.21308 0 
0.127783 0.192941 0 
0.0900561 0.198163 0 
0.105303 0.179103 0 
CELLS 64 128
1 0
1 1
1 2
1 3
1 4
1 5
1 6
1 7
1 8
1 9
1 10
1 11
1 12
1 13
1 14
1 15
1 16
1 17
1 18
1 19
1 20
1 21
1 22
1 23
1 24
1 25
1 26
1 27
1 28
1 29
1 30
1 31
1 32
1 33
1 34
1 35
1 36
1 37
1 38
1 39
1 40
1 41
1 42
1 43
1 44
1 45
1 46
1 47
1 48
1 49
1 50
1 51
1 52
1 53
1 54
1 55
1 56
1 57
1 58
1 59
1 60
1 61
1 62
1 63
CELL_TYPES 64
1
1
1
1
1
1
1
1
1
1
1
1
1
1
1
1
1
1
1
1
1
1
1
1
1
1
1
1
1
1
1
1
1
1
1
1
1
1
1
1
1
1
1
1
1
1
1
1
1
1
1
1
1
1
1
1
1
1
1
1
1
1
1
1
POINT_DATA 64
VECTORS displacement double
-0.066225 0.211015 0 
-0.0513152 0.166069 0 
-0.111457 0.196385 0 
-0.0959059 0.151845 0 
-0.0367436 0.120232 0 
-0.020397 0.0744445 0 
-0.0815689 0.10552 0 
-0.0662226 0.0601049 0 
-0.00730061 0.0285987 0 
0.00748023 -0.0172095 0 
-0.0521747 0.0137412 0 
-0.0369018 -0.0323923 0 
0.0226477 -0.0613137 0 
0.0379309 -0.107602 0 
-0.0223371 -0.0770064 0 
-0.00569749 -0.122447 0 
-0.156649 0.182548 0 
-0.141966 0.136363 0 
-0.201802 0.167552 0 
-0.186799 0.122142 0 
-0.12733 0.0909046 0 
-0.11257 0.0449954 0 
-0.172498 0.0759735 0 
-0.157616 0.0306774 0 
-0.0985302 -0.000107388 0 
-0.0832374 -0.0457446 0 
-0.143677 -0.0157879 0 
-0.128672 -0.0611325 0 
-0.0690666 -0.0915208 0 
-0.053719 -0.137269 0 
-0.113538 -0.107386 0 
-0.0988403 -0.151041 0 
-0.247621 0.152873 0 
-0.232592 0.107388 0 
-0.292856 0.13817 0 
-0.278385 0.0924435 0 
-0.21832 0.0613202 0 
-0.203158 0.0156348 0 
-0.264213 0.0472494 0 
-0.248932 0.00117008 0 
-0.188734 -0.0293191 0 
-0.174207 -0.0748501 0 
-0.233825 -0.0438642 0 
-0.219721 -0.0894047 0 
-0.159263 -0.120756 0 
-0.144193 -0.164745 0 
-0.20443 -0.135745 0 
-0.189618 -0.180099 0 
-0.339205 0.123717 0 
-0.323693 0.0786509 0 
-0.384606 0.109197 0 
-0.369051 0.0630192 0 
-0.309825 0.0325358 0 
-0.294059 -0.0133015 0 
-0.355521 0.0167883 0 
-0.339066 -0.0279369 0 
-0.279556 -0.0585139 0 
-0.265153 -0.103181 0 
-0.325408 -0.0731842 0 
-0.311369 -0.118719 0 
-0.250483 -0.14942 0 
-0.234717 -0.194559 0 
-0.297444 -0.164337 0 
-0.282197 -0.208397 0 
VECTORS velocity double
-0.229142 -1.35877 0 
-0.143545 -1.32102 0 
-0.31049 -1.74364 0 
0.0849303 -1.4609 0 
-0.242455 -0.961455 0 
0.171718 -1.55692 0 
0.0864986 -1.63847 0 
0.160221 -1.46653 0 
0.06211 -0.946132 0 
0.214812 -1.17756 0 
0.450693 -1.35982 0 
0.386715 -1.33526 0 
0.158103 -0.802687 0 
0.519434 -0.9423 0 
0.393878 -1.18996 0 
0.862229 -1.07859 0 
-0.157302 -1.65662 0 
0.398249 -1.42021 0 
-0.235611 -1.83063 0 
0.0755199 -1.70296 0 
0.0311065 -1.42859 0 
0.264263 -1.42964 0 
-0.061413 -1.56318 0 
0.272685 -1.38421 0 
0.388613 -1.45585 0 
0.393459 -1.82463 0 
0.508154 -1.03384 0 
0.333855 -1.46803 0 
0.496749 -1.1717 0 
0.787789 -1.21032 0 
0.406326 -1.34347 0 
0.676173 -1.3586 0 
0.0303152 -1.75227 0 
0.343113 -1.65925 0 
0.0198563 -2.16558 0 
0.32281 -1.75163 0 
0.358883 -1.80215 0 
0.498167 -1.87671 0 
0.221959 -1.77443 0 
0.46872 -1.82829 0 
0.51481 -1.44965 0 
0.571643 -1.66053 0 
0.552315 -1.70854 0 
0.639244 -1.73097 0 
0.800182 -1.52557 0 
0.841307 -1.31023 0 
0.710043 -1.67976 0 
0.875781 -1.34803 0 
-0.00364423 -1.93506 0 
0.477257 -1.86913 0 
0.255656 -2.24888 0 
0.527175 -2.02088 0 
0.238922 -1.74815 0 
0.535102 -1.76739 0 
0.532696 -2.08732 0 
0.673707 -1.95589 0 
0.584981 -1.60576 0 
0.584361 -1.52744 0 
0.659011 -1.85204 0 
0.791292 -1.9659 0 
0.707522 -1.44141 0 
0.954501 -1.59366 0 
0.82132 -1.87891 0 
0.841737 -1.62906 0 
SCALARS mass double 1
LOOKUP_TABLE default
0.625
0.625
0.625
0.625
0.625
0.625
0.625
0.625
0.625
0.625
0.625
0.625
0.625
0.625
0.625
0.625
0.625
0.625
0.625
0.625
0.625
0.625
0.625
0.625
0.625
0.625
0.625
0.625
0.625
0.625
0.625
0.625
0.625
0.625
0.625
0.625
0.625
0.625
0.625
0.625
0.625
0.625
0.625
0.625
0.625
0.625
0.625
0.625
0.625
0.625
0.625
0.625
0.625
0.625
0.625
0.625
0.625
0.625
0.625
0.625
0.625
0.625
0.625
0.625
SCALARS volume double 1
LOOKUP_TABLE default
0.000632177
0.000621666
0.000619119
0.000624027
0.000627336
0.000633006
0.000636255
0.000607575
0.000627488
0.000619136
0.000642382
0.000619872
0.000616711
0.000629624
0.000633539
0.000630251
0.000630012
0.000611088
0.000623728
0.000636053
0.000630941
0.000632822
0.000624506
0.000622328
0.0006285
0.000617352
0.000621327
0.000641809
0.000618169
0.000627464
0.000630801
0.000624484
0.000624103
0.000629561
0.000626711
0.000621864
0.000620566
0.000634479
0.000640513
0.000621553
0.000621645
0.000619523
0.000631399
0.000629463
0.000619361
0.000628576
0.00063104
0.000622789
0.000630618
0.000617485
0.000626004
0.000623812
0.000633563
0.000626571
0.000628133
0.000626538
0.000622559
0.000625717
0.000621179
0.000624994
0.00062194
0.000632109
0.000620347
0.000621259
VECTORS momentum double
-0.143214 -0.84923 0 
-0.0897157 -0.825638 0 
-0.194056 -1.08978 0 
0.0530815 -0.91306 0 
-0.151534 -0.600909 0 
0.107324 -0.973077 0 
0.0540616 -1.02404 0 
0.100138 -0.916579 0 
0.0388188 -0.591333 0 
0.134258 -0.735977 0 
0.281683 -0.849887 0 
0.241697 -0.834539 0 
0.0988145 -0.501679 0 
0.324646 -0.588937 0 
0.246174 -0.743725 0 
0.538893 -0.674121 0 
-0.0983136 -1.03539 0 
0.248906 -0.887633 0 
-0.147257 -1.14414 0 
0.0471999 -1.06435 0 
0.0194415 -0.89287 0 
0.165164 -0.893527 0 
-0.0383831 -0.976987 0 
0.170428 -0.86513 0 
0.242883 -0.909903 0 
0.245912 -1.14039 0 
0.317596 -0.646148 0 
0.208659 -0.917516 0 
0.310468 -0.732313 0 
0.492368 -0.75645 0 
0.253953 -0.839669 0 
0.422608 -0.849123 0 
0.018947 -1.09517 0 
0.214446 -1.03703 0 
0.0124102 -1.35349 0 
0.201756 -1.09477 0 
0.224302 -1.12634 0 
0.311355 -1.17294 0 
0.138724 -1.10902 0 
0.29295 -1.14268 0 
0.321756 -0.90603 0 
0.357277 -1.03783 0 
0.345197 -1.06784 0 
0.399528 -1.08186 0 
0.500114 -0.953482 0 
0.525817 -0.818897 0 
0.443777 -1.04985 0 
0.547363 -0.84252 0 
-0.00227765 -1.20941 0 
0.298286 -1.16821 0 
0.159785 -1.40555 0 
0.329484 -1.26305 0 
0.149326 -1.09259 0 
0.334439 -1.10462 0 
0.332935 -1.30458 0 
0.421067 -1.22243 0 
0.365613 -1.0036 0 
0.365226 -0.954652 0 
0.411882 -1.15753 0 
0.494557 -1.22869 0 
0.442201 -0.900881 0 
0.596563 -0.996036 0 
0.513325 -1.17432 0 
0.526085 -1.01816 0 
VECTORS body_force double
0 -9.81 0 
0 -9.81 0 
0 -9.81 0 
0 -9.81 0 
0 -9.81 0 
0 -9.81 0 
0 -9.81 0 
0 -9.81 0 
0 -9.81 0 
0 -9.81 0 
0 -9.81 0 
0 -9.81 0 
0 -9.81 0 
0 -9.81 0 
0 -9.81 0 
0 -9.81 0 
0 -9.81 0 
0 -9.81 0 
0 -9.81 0 
0 -9.81 0 
0 -9.81 0 
0 -9.81 0 
0 -9.81 0 
0 -9.81 0 
0 -9.81 0 
0 -9.81 0 
0 -9.81 0 
0 -9.81 0 
0 -9.81 0 
0 -9.81 0 
0 -9.81 0 
0 -9.81 0 
0 -9.81 0 
0 -9.81 0 
0 -9.81 0 
0 -9.81 0 
0 -9.81 0 
0 -9.81 0 
0 -9.81 0 
0 -9.81 0 
0 -9.81 0 
0 -9.81 0 
0 -9.81 0 
0 -9.81 0 
0 -9.81 0 
0 -9.81 0 
0 -9.81 0 
0 -9.81 0 
0 -9.81 0 
0 -9.81 0 
0 -9.81 0 
0 -9.81 0 
0 -9.81 0 
0 -9.81 0 
0 -9.81 0 
0 -9.81 0 
0 -9.81 0 
0 -9.81 0 
0 -9.81 0 
0 -9.81 0 
0 -9.81 0 
0 -9.81 0 
0 -9.81 0 
0 -9.81 0 
TENSORS cauchy_stress double
986.704 25.3251 0
25.3251 1208.91 0
0 0 0

-171.79 -481.56 0
-481.56 -856.681 0
0 0 0

-2305.63 -637.163 0
-637.163 487.431 0
0 0 0

127.171 1821.09 0
1821.09 -426.761 0
0 0 0

-1556.37 330.135 0
330.135 2273.68 0
0 0 0

2594.95 1206.17 0
1206.17 -147.144 0
0 0 0

-586.806 -1781.07 0
-1781.07 4019.22 0
0 0 0

-2214.97 1248 0
1248 -3222.8 0
0 0 0

451.314 295.289 0
295.289 312.622 0
0 0 0

-1917.98 1347.68 0
1347.68 105.063 0
0 0 0

3856.39 -2181.82 0
-2181.82 1418.87 0
0 0 0

-2256.86 -500.681 0
-500.681 672.645 0
0 0 0

-301.422 178.611 0
178.611 -2266 0
0 0 0

183.517 142.612 0
142.612 1234.09 0
0 0 0

3141.46 1559.92 0
1559.92 -531.954 0
0 0 0

331.906 123.811 0
123.811 1276.92 0
0 0 0

868.395 522.82 0
522.82 667.611 0
0 0 0

-2097.14 -2228.85 0
-2228.85 -2231.82 0
0 0 0

113.76 -755.143 0
-755.143 -505.607 0
0 0 0

2358.39 386.241 0
386.241 1012.92 0
0 0 0

1475.79 -427.65 0
-427.65 343.592 0
0 0 0

477.04 1715.39 0
1715.39 1914.67 0
0 0 0

-667.799 769.551 0
769.551 515.881 0
0 0 0

-1220.64 -918.476 0
-918.476 396.581 0
0 0 0

-1124.45 708.63 0
708.63 2198.46 0
0 0 0

-724.468 -745.912 0
-745.912 -1643.25 0
0 0 0

1071.35 -873.96 0
-873.96 -2204.83 0
0 0 0

841.357 -531.448 0
-531.448 4262.45 0
0 0 0

-188.466 -928.43 0
-928.43 -1925.02 0
0 0 0

696.303 -250.149 0
-250.149 60.3492 0
0 0 0

1836.16 -166.101 0
-166.101 -59.47 0
0 0 0

-475.34 2375.87 0
2375.87 316.4 0
0 0 0

-974.008 118.1 0
118.1 697.744 0
0 0 0

1229.49 261.66 0
261.66 168.71 0
0 0 0

714.833 436.209 0
436.209 -189.1 0
0 0 0

931.025 1037.85 0
1037.85 -1898.46 0
0 0 0

-2746.99 -995.299 0
-995.299 1377.68 0
0 0 0

3937.04 949.724 0
949.724 -1042.28 0
0 0 0

2158.34 149.637 0
149.637 2556.66 0
0 0 0

188.719 -838.75 0
-838.75 -1252.39 0
0 0 0

-3553.58 -223.203 0
-223.203 2518.41 0
0 0 0

1686.2 474.657 0
474.657 -3378.84 0
0 0 0

1723.82 -244.817 0
-244.817 235.132 0
0 0 0

507.255 -1081.2 0
-1081.2 861.088 0
0 0 0

-966.455 -961.845 0
-961.845 -776.642 0
0 0 0

1014.58 -169.909 0
-169.909 82.6686 0
0 0 0

1475.18 -1064.49 0
-1064.49 374.257 0
0 0 0

556.683 2876.61 0
2876.61 -1238.27 0
0 0 0

564.467 552.83 0
552.83 1156.51 0
0 0 0

-2298.5 -991.572 0
-991.572 -27.7012 0
0 0 0

45.8611 102.729 0
102.729 262.786 0
0 0 0

205.758 -193.819 0
-193.819 -571.52 0
0 0 0

1120.1 912.631 0
912.631 1496.83 0
0 0 0

462.488 -1183.35 0
-1183.35 20.1979 0
0 0 0

370.68 60.253 0
60.253 591.024 0
0 0 0

616.129 -456.75 0
-456.75 -143.336 0
0 0 0

-191.678 721.072 0
721.072 -560.846 0
0 0 0

-854.033 1615.58 0
1615.58 1074.43 0
0 0 0

277.584 -128.973 0
-128.973 -1456.92 0
0 0 0

-429.473 340.69 0
340.69 427.619 0
0 0 0

194.557 -117.961 0
-117.961 -1138.29 0
0 0 0

-121.117 -1253.85 0
-1253.85 2296.28 0
0 0 0

665.842 546.748 0
546.748 -2102.99 0
0 0 0

-240.536 1188.01 0
1188.01 -914.057 0
0 0 0

TENSORS velocity_gradient double
0.516822 -2.88438 0
4.52024 0.140161 0
0 0 0

-0.324743 -2.76447 0
3.56185 0.377722 0
0 0 0

0.431332 -3.14063 0
4.43102 -0.227784 0
0 0 0

0.292427 -4.49282 0
4.22189 0.262245 0
0 0 0

-0.215663 -4.92841 0
3.43972 0.336328 0
0 0 0

0.150444 -5.2138 0
3.39314 0.372644 0
0 0 0

0.0479863 -4.58259 0
3.43091 0.291892 0
0 0 0

0.270591 -4.79594 0
3.3515 -0.0704363 0
0 0 0

-0.0953258 -4.25165 0
4.70948 -0.24559 0
0 0 0

-0.0934511 -4.26684 0
4.97112 -0.31462 0
0 0 0

-0.0283085 -4.50358 0
3.25327 -0.287118 0
0 0 0

-0.234208 -4.29075 0
4.13508 -0.245083 0
0 0 0

-0.0178089 -4.69313 0
5.05802 -0.189247 0
0 0 0

0.281219 -5.47101 0
3.14127 0.111768 0
0 0 0

0.235588 -5.11358 0
5.07254 0.233594 0
0 0 0

0.680088 -5.47151 0
5.05921 0.244328 0
0 0 0

0.294688 -4.28389 0
4.25222 0.0124855 0
0 0 0

0.261101 -4.53582 0
4.1916 0.220671 0
0 0 0

-0.444805 -4.53012 0
4.30207 0.300451 0
0 0 0

-0.042751 -4.56122 0
4.30382 0.210761 0
0 0 0

0.213973 -4.59077 0
4.16933 0.213721 0
0 0 0

0.067102 -5.12518 0
3.94585 -0.362408 0
0 0 0

0.109328 -5.50127 0
4.391 0.425078 0
0 0 0

-0.095784 -5.35245 0
4.90258 0.0539053 0
0 0 0

-0.281168 -4.89658 0
3.18553 -0.392402 0
0 0 0

-0.424235 -4.45849 0
3.26542 0.67662 0
0 0 0

-0.245637 -4.40199 0
5.20527 0.586419 0
0 0 0

-0.180963 -4.13252 0
3.59268 1.11512 0
0 0 0

-0.0933675 -4.6823 0
3.71051 0.375554 0
0 0 0

0.765415 -4.3537 0
4.98367 0.876002 0
0 0 0

0.15747 -4.37165 0
4.04794 0.79344 0
0 0 0

0.0656858 -4.16592 0
3.70196 1.21347 0
0 0 0

-0.396463 -4.46086 0
4.42451 0.475874 0
0 0 0

-0.263285 -5.12439 0
4.43215 0.290185 0
0 0 0

-0.274715 -4.31807 0
3.96933 0.277831 0
0 0 0

-0.0324622 -4.95708 0
4.09688 -0.268571 0
0 0 0

0.0717888 -5.54553 0
3.94437 0.635104 0
0 0 0

-0.234004 -5.34504 0
5.23437 0.493042 0
0 0 0

0.308834 -5.19418 0
3.57234 0.0958244 0
0 0 0

0.411453 -3.78632 0
3.29143 -0.381911 0
0 0 0

-0.194548 -3.82518 0
4.88049 0.386471 0
0 0 0

-0.0597432 -3.91981 0
4.18179 0.87694 0
0 0 0

-0.0204784 -3.71828 0
4.12591 -0.241739 0
0 0 0

0.0870207 -3.91683 0
3.81562 0.00223319 0
0 0 0

0.161981 -4.662 0
3.86237 -0.113819 0
0 0 0

-0.152324 -4.49258 0
3.16011 0.401575 0
0 0 0

0.52007 -4.37789 0
3.79253 -0.22273 0
0 0 0

0.595591 -4.64423 0
3.52248 -0.211788 0
0 0 0

0.0149021 -4.60788 0
3.97771 -0.363566 0
0 0 0

0.164314 -4.72227 0
4.07843 -0.440682 0
0 0 0

0.207075 -4.31546 0
3.77234 -0.278062 0
0 0 0

0.261592 -4.46693 0
4.143 -0.350193 0
0 0 0

0.382224 -4.30288 0
3.58735 -0.336939 0
0 0 0

0.273696 -3.9792 0
3.3182 -0.344423 0
0 0 0

0.255487 -4.19288 0
4.1297 -0.349606 0
0 0 0

0.185261 -4.14051 0
3.84336 -0.323649 0
0 0 0

0.0848243 -3.82666 0
3.3608 -0.343884 0
0 0 0

0.197084 -3.64139 0
3.67955 0.00661279 0
0 0 0

0.104958 -3.30501 0
3.54932 0.708601 0
0 0 0

0.289861 -3.43053 0
3.97331 0.42079 0
0 0 0

0.825286 -3.90438 0
3.85009 -0.133423 0
0 0 0

0.892171 -0.464498 0
4.01446 -0.417713 0
0 0 0

0.354768 -2.61065 0
4.40533 0.21199 0
0 0 0

0.263399 -1.18345 0
4.33391 -0.0305266 0
0 0 0

SCALARS active double 1
LOOKUP_TABLE default
1
1
1
1
1
1
1
1
1
1
1
1
1
1
1
1
1
1
1
1
1
1
1
1
1
1
1
1
1
1
1
1
1
1
1
1
1
1
1
1
1
1
1
1
1
1
1
1
1
1
1
1
1
1
1
1
1
1
1
1
1
1
1
1
SCALARS extent double 1
LOOKUP_TABLE default
0.0125
0.0125
0.0125
0.0125
0.0125
0.0125
0.0125
0.0125
0.0125
0.0125
0.0125
0.0125
0.0125
0.0125
0.0125
0.0125
0.0125
0.0125
0.0125
0.0125
0.0125
0.0125
0.0125
0.0125
0.0125
0.0125
0.0125
0.0125
0.0125
0.0125
0.0125
0.0125
0.0125
0.0125
0.0125
0.0125
0.0125
0.0125
0.0125
0.0125
0.0125
0.0125
0.0125
0.0125
0.0125
0.0125
0.0125
0.0125
0.0125
0.0125
0.0125
0.0125
0.0125
0.0125
0.0125
0.0125
0.0125
0.0125
0.0125
0.0125
0.0125
0.0125
0.0125
0.0125
SCALARS pressure double 1
LOOKUP_TABLE default
-1097.81
514.235
909.101
149.795
-358.656
-1223.9
-1716.21
2718.88
-381.968
906.458
-2637.63
792.109
1283.71
-708.802
-1304.75
-804.414
-768.003
2164.48
195.923
-1685.65
-909.693
-1195.85
75.9591
412.029
-537.009
1183.86
566.739
-2551.9
1056.74
-378.326
-888.344
79.47
138.132
-699.101
-262.867
483.716
684.654
-1447.38
-2357.5
531.835
517.586
846.32
-979.474
-684.171
871.549
-548.626
-924.72
340.794
-860.489
1163.1
-154.323
182.881
-1308.46
-241.343
-480.852
-236.397
376.262
-110.197
589.666
0.927116
471.868
-1087.58
718.573
577.296
SCALARS density double 1
LOOKUP_TABLE default
988.648
1005.36
1009.5
1001.56
996.277
987.352
982.31
1028.68
996.035
1009.47
972.941
1008.27
1013.44
992.656
986.522
991.669
992.045
1022.77
1002.04
982.622
990.584
987.64
1000.79
1004.29
994.431
1012.39
1005.91
973.809
1011.05
996.073
990.804
1000.83
1001.44
992.756
997.27
1005.04
1007.15
985.06
975.78
1005.55
1005.4
1008.84
989.865
992.91
1009.11
994.311
990.429
1003.55
991.091
1012.17
998.396
1001.9
986.484
997.493
995.012
997.544
1003.92
998.855
1006.15
1000.01
1004.92
988.753
1007.5
1006.02
