# vtk DataFile Version 3.0
Frame: 25, Time: 0.425
ASCII
DATASET UNSTRUCTURED_GRID
POINTS 64 double
0.145287 0.390129 0 
0.133949 0.367899 0 
0.124747 0.402375 0 
0.112909 0.380326 0 
0.11896 0.345913 0 
0.104744 0.32399 0 
0.0984311 0.359406 0 
0.0841196 0.338867 0 
0.0885585 0.304209 0 
0.0745719 0.283214 0 
0.0680627 0.318154 0 
0.0537951 0.29644 0 
0.0617518 0.262247 0 
0.0450317 0.240445 0 
0.0392842 0.275448 0 
0.0237499 0.25253 0 
0.105605 0.416134 0 
0.0908238 0.394427 0 
0.0848604 0.429579 0 
0.0709623 0.408147 0 
0.0772345 0.373439 0 
0.0623945 0.352627 0 
0.0564866 0.387114 0 
0.0426782 0.365893 0 
0.0482 0.332293 0 
0.0335971 0.311195 0 
0.0268327 0.345586 0 
0.0128435 0.325782 0 
0.018873 0.290083 0 
0.0034468 0.268403 0 
0.998495 0.304594 0 
0.985633 0.284279 0 
0.0640586 0.443507 0 
0.0500989 0.42155 0 
0.0430702 0.456681 0 
0.0288673 0.43512 0 
0.0354279 0.400887 0 
0.0212832 0.379405 0 
0.0149199 0.414821 0 
0.999783 0.393168 0 
0.00693908 0.359461 0 
0.992704 0.340005 0 
0.985647 0.372665 0 
0.97128 0.353281 0 
0.978741 0.318681 0 
0.965517 0.298439 0 
0.956432 0.33122 0 
0.943341 0.311687 0 
0.0219237 0.470422 0 
0.00873993 0.448818 0 
0.000829548 0.48394 0 
0.986995 0.462312 0 
0.99425 0.428726 0 
0.979471 0.407308 0 
0.972066 0.442569 0 
0.958711 0.420901 0 
0.965164 0.387234 0 
0.95109 0.367437 0 
0.943916 0.401507 0 
0.929577 0.382044 0 
0.935208 0.346458 0 
0.921728 0.325849 0 
0.914287 0.362904 0 
0.900028 0.341819 0 
CELLS 64 128
1 0
1 1
1 2
1 3
1 4
1 5
1 6
1 7
1 8
1 9
1 10
1 11
1 12
1 13
1 14
1 15
1 16
1 17
1 18
1 19
1 20
1 21
1 22
1 23
1 24
1 25
1 26
1 27
1 28
1 29
1 30
1 31
1 32
1 33
1 34
1 35
1 36
1 37
1 38
1 39
1 40
1 41
1 42
1 43
1 44
1 45
1 46
1 47
1 48
1 49
1 50
1 51
1 52
1 53
1 54
1 55
1 56
1 57
1 58
1 59
1 60
1 61
1 62
1 63
CELL_TYPES 64
1
1
1
1
1
1
1
1
1
1
1
1
1
1
1
1
1
1
1
1
1
1
1
1
1
1
1
1
1
1
1
1
1
1
1
1
1
1
1
1
1
1
1
1
1
1
1
1
1
1
1
1
1
1
1
1
1
1
1
1
1
1
1
1
POINT_DATA 64
VECTORS displacement double
-0.0672133 0.177629 0 
-0.0785507 0.130399 0 
-0.112753 0.189875 0 
-0.124591 0.142826 0 
-0.0935398 0.0834127 0 
-0.107756 0.0364898 0 
-0.139069 0.0969063 0 
-0.15338 0.0513667 0 
-0.123942 -0.00829098 0 
-0.137928 -0.0542865 0 
-0.169437 0.00565392 0 
-0.183705 -0.0410604 0 
-0.150748 -0.100253 0 
-0.167468 -0.147055 0 
-0.198216 -0.0870515 0 
-0.21375 -0.13497 0 
-0.156895 0.203634 0 
-0.171676 0.156927 0 
-0.20264 0.217079 0 
-0.216538 0.170647 0 
-0.185266 0.110939 0 
-0.200106 0.0651271 0 
-0.231013 0.124614 0 
-0.244822 0.0783935 0 
-0.2143 0.0197934 0 
-0.228903 -0.0263051 0 
-0.260667 0.0330861 0 
-0.274657 -0.0117179 0 
-0.243627 -0.0724172 0 
-0.259053 -0.119097 0 
-0.289005 -0.057906 0 
-0.301867 -0.103221 0 
-0.248441 0.231007 0 
-0.262401 0.18405 0 
-0.29443 0.244181 0 
-0.308633 0.19762 0 
-0.277072 0.138387 0 
-0.291217 0.0919052 0 
-0.32258 0.152321 0 
-0.337717 0.105668 0 
-0.305561 0.0469608 0 
-0.319796 0.00250528 0 
-0.351853 0.0601649 0 
-0.36622 0.0157813 0 
-0.333759 -0.0438189 0 
-0.346983 -0.0890613 0 
-0.381068 -0.0312799 0 
-0.394159 -0.0758134 0 
-0.340576 0.257922 0 
-0.35376 0.211318 0 
-0.38667 0.27144 0 
-0.400505 0.224812 0 
-0.36825 0.166226 0 
-0.383029 0.119808 0 
-0.415434 0.180069 0 
-0.428789 0.133401 0 
-0.397336 0.0747341 0 
-0.41141 0.0299367 0 
-0.443584 0.0890065 0 
-0.457923 0.0445442 0 
-0.427292 -0.0160422 0 
-0.440772 -0.0616511 0 
-0.473213 0.000404213 0 
-0.487472 -0.0456811 0 
VECTORS velocity double
0.538425 1.54252 0 
0.569736 1.36383 0 
0.0726897 1.4425 0 
0.166668 1.30137 0 
0.81412 1.96181 0 
0.651643 1.47291 0 
0.641264 1.46807 0 
0.313674 1.5537 0 
0.730509 1.99358 0 
0.934902 1.68052 0 
0.0898586 1.50995 0 
0.305559 1.4296 0 
0.90418 1.95802 0 
1.65738 1.45572 0 
0.52838 1.41925 0 
1.35889 1.11146 0 
0.607907 1.77107 0 
0.576541 1.5034 0 
-0.233655 1.56406 0 
0.303264 1.33303 0 
0.364998 1.51257 0 
0.50549 1.27674 0 
0.162689 1.48825 0 
0.326905 1.03878 0 
0.558365 1.53575 0 
0.513751 1.11956 0 
0.63899 1.43848 0 
0.425673 1.3769 0 
0.471338 1.02116 0 
0.447077 0.647461 0 
0.247079 1.05166 0 
0.0388092 -0.0641291 0 
-0.0958736 1.57495 0 
0.179818 0.913364 0 
-0.276847 1.28953 0 
0.0934682 0.900122 0 
0.289221 1.20384 0 
0.175728 0.543518 0 
0.126779 1.36828 0 
0.0594947 0.706589 0 
0.159444 0.587078 0 
0.358097 0.710892 0 
0.0356651 0.551682 0 
0.0806001 0.537284 0 
0.748012 0.606616 0 
0.526044 -0.134096 0 
0.451123 0.64392 0 
0.592533 0.66372 0 
-0.351618 1.22852 0 
0.155724 0.921978 0 
-0.617362 0.939659 0 
-0.292581 0.764123 0 
0.299561 1.36798 0 
0.489205 0.799012 0 
-0.0387734 0.862791 0 
0.0586846 0.789479 0 
0.561417 0.765932 0 
0.323848 0.695391 0 
0.211209 1.04321 0 
0.435761 0.555771 0 
0.398448 0.899696 0 
0.436613 0.286005 0 
0.617702 0.86181 0 
0.602371 0.406953 0 
SCALARS mass double 1
LOOKUP_TABLE default
0.625
0.625
0.625
0.625
0.625
0.625
0.625
0.625
0.625
0.625
0.625
0.625
0.625
0.625
0.625
0.625
0.625
0.625
0.625
0.625
0.625
0.625
0.625
0.625
0.625
0.625
0.625
0.625
0.625
0.625
0.625
0.625
0.625
0.625
0.625
0.625
0.625
0.625
0.625
0.625
0.625
0.625
0.625
0.625
0.625
0.625
0.625
0.625
0.625
0.625
0.625
0.625
0.625
0.625
0.625
0.625
0.625
0.625
0.625
0.625
0.625
0.625
0.625
0.625
SCALARS volume double 1
LOOKUP_TABLE default
0.000616724
0.000629191
0.000601076
0.000627351
0.000635599
0.000616898
0.000638028
0.000603983
0.000635868
0.00061504
0.000645809
0.000614066
0.000631892
0.000639168
0.000688671
0.00063773
0.000627024
0.000626251
0.0006188
0.000625564
0.000621756
0.000623968
0.000618813
0.000627263
0.000624161
0.000610595
0.000601854
0.00062639
0.000652698
0.000579338
0.000625396
0.000582413
0.000634297
0.000627038
0.000635719
0.000619872
0.000609943
0.000652327
0.000625637
0.000640931
0.000602753
0.000585264
0.000610215
0.000627416
0.000623083
0.000615154
0.000686686
0.000549924
0.000613498
0.000608987
0.000628094
0.000616794
0.000634136
0.000613945
0.00061935
0.000628383
0.000615562
0.000632556
0.000606729
0.000624869
0.000655287
0.000640738
0.000630887
0.000627036
VECTORS momentum double
0.336516 0.964078 0 
0.356085 0.852394 0 
0.0454311 0.901565 0 
0.104168 0.813358 0 
0.508825 1.22613 0 
0.407277 0.92057 0 
0.40079 0.917541 0 
0.196046 0.971061 0 
0.456568 1.24599 0 
0.584314 1.05032 0 
0.0561617 0.943717 0 
0.190974 0.8935 0 
0.565113 1.22376 0 
1.03587 0.909824 0 
0.330238 0.887033 0 
0.849303 0.69466 0 
0.379942 1.10692 0 
0.360338 0.939624 0 
-0.146034 0.97754 0 
0.18954 0.833144 0 
0.228124 0.945354 0 
0.315931 0.797965 0 
0.10168 0.930158 0 
0.204315 0.649235 0 
0.348978 0.959842 0 
0.321094 0.699727 0 
0.399369 0.899051 0 
0.266046 0.860566 0 
0.294586 0.638224 0 
0.279423 0.404663 0 
0.154424 0.65729 0 
0.0242558 -0.0400807 0 
-0.059921 0.984346 0 
0.112386 0.570853 0 
-0.17303 0.805959 0 
0.0584177 0.562576 0 
0.180763 0.7524 0 
0.10983 0.339699 0 
0.079237 0.855173 0 
0.0371842 0.441618 0 
0.0996523 0.366924 0 
0.223811 0.444307 0 
0.0222907 0.344801 0 
0.050375 0.335803 0 
0.467507 0.379135 0 
0.328777 -0.08381 0 
0.281952 0.40245 0 
0.370333 0.414825 0 
-0.219761 0.767823 0 
0.0973277 0.576236 0 
-0.385851 0.587287 0 
-0.182863 0.477577 0 
0.187225 0.854989 0 
0.305753 0.499383 0 
-0.0242334 0.539244 0 
0.0366779 0.493424 0 
0.350885 0.478708 0 
0.202405 0.434619 0 
0.132006 0.652007 0 
0.272351 0.347357 0 
0.24903 0.56231 0 
0.272883 0.178753 0 
0.386064 0.538631 0 
0.376482 0.254346 0 
VECTORS body_force double
0 -9.81 0 
0 -9.81 0 
0 -9.81 0 
0 -9.81 0 
0 -9.81 0 
0 -9.81 0 
0 -9.81 0 
0 -9.81 0 
0 -9.81 0 
0 -9.81 0 
0 -9.81 0 
0 -9.81 0 
0 -9.81 0 
0 -9.81 0 
0 -9.81 0 
0 -9.81 0 
0 -9.81 0 
0 -9.81 0 
0 -9.81 0 
0 -9.81 0 
0 -9.81 0 
0 -9.81 0 
0 -9.81 0 
0 -9.81 0 
0 -9.81 0 
0 -9.81 0 
0 -9.81 0 
0 -9.81 0 
0 -9.81 0 
0 -9.81 0 
0 -9.81 0 
0 -9.81 0 
0 -9.81 0 
0 -9.81 0 
0 -9.81 0 
0 -9.81 0 
0 -9.81 0 
0 -9.81 0 
0 -9.81 0 
0 -9.81 0 
0 -9.81 0 
0 -9.81 0 
0 -9.81 0 
0 -9.81 0 
0 -9.81 0 
0 -9.81 0 
0 -9.81 0 
0 -9.81 0 
0 -9.81 0 
0 -9.81 0 
0 -9.81 0 
0 -9.81 0 
0 -9.81 0 
0 -9.81 0 
0 -9.81 0 
0 -9.81 0 
0 -9.81 0 
0 -9.81 0 
0 -9.81 0 
0 -9.81 0 
0 -9.81 0 
0 -9.81 0 
0 -9.81 0 
0 -9.81 0 
TENSORS cauchy_stress double
-2092.05 734.023 0
734.023 -471.328 0
0 0 0

787.128 1272.13 0
1272.13 497.991 0
0 0 0

-5005.89 2955.58 0
2955.58 -2499.77 0
0 0 0

1267.18 -2646.01 0
-2646.01 -545.243 0
0 0 0

3627.09 2648.54 0
2648.54 -393.075 0
0 0 0

214.583 581.136 0
581.136 -2723.87 0
0 0 0

5991.43 3618.05 0
3618.05 -2023.94 0
0 0 0

-1925.16 -2267.47 0
-2267.47 -4652.76 0
0 0 0

1003.52 -61.4201 0
-61.4201 2311.8 0
0 0 0

399.179 1659.39 0
1659.39 -3488.47 0
0 0 0

-468.515 4354.25 0
4354.25 6767.03 0
0 0 0

227.498 937.808 0
937.808 -3621.54 0
0 0 0

1194.44 -121.23 0
-121.23 914.494 0
0 0 0

4237.12 500.638 0
500.638 73.6086 0
0 0 0

10655.1 2114.28 0
2114.28 8001.02 0
0 0 0

3870.72 2722.57 0
2722.57 6.94497 0
0 0 0

-239.725 863.889 0
863.889 861.345 0
0 0 0

-3566.04 1518.04 0
1518.04 3950.53 0
0 0 0

-1516.88 1298.38 0
1298.38 -400.274 0
0 0 0

-502.307 515.499 0
515.499 675.92 0
0 0 0

450.702 2.06809 0
2.06809 -1451.46 0
0 0 0

2184.51 872.829 0
872.829 -2502.29 0
0 0 0

-707.532 -488.392 0
-488.392 -1205.6 0
0 0 0

1128.15 3858.82 0
3858.82 -432.987 0
0 0 0

1846.56 2580.49 0
2580.49 -2104.98 0
0 0 0

-3708.63 -230.65 0
-230.65 -775.479 0
0 0 0

-3478.3 -1468.14 0
-1468.14 -3778.72 0
0 0 0

97.4237 -287.055 0
-287.055 329.7 0
0 0 0

897.619 2354.51 0
2354.51 7441.38 0
0 0 0

-10146.5 448.435 0
448.435 -4442.84 0
0 0 0

-3629.9 -417.219 0
-417.219 3751.68 0
0 0 0

-6194.5 -5185.44 0
-5185.44 -7377.08 0
0 0 0

1950.2 2086.47 0
2086.47 889.316 0
0 0 0

260.496 1420 0
1420 365.697 0
0 0 0

1219.09 1171.9 0
1171.9 2050.95 0
0 0 0

-1803.61 -1314.32 0
-1314.32 219.125 0
0 0 0

-1180.74 2265.31 0
2265.31 -3509.03 0
0 0 0

5160.84 -1518.51 0
-1518.51 3068.85 0
0 0 0

1282.42 1426.35 0
1426.35 -1086.53 0
0 0 0

2329.44 1658.28 0
1658.28 2510.88 0
0 0 0

1983.02 2160.1 0
2160.1 -8952.99 0
0 0 0

-4132.45 -1573.81 0
-1573.81 -8500.06 0
0 0 0

-1545.25 -1077.22 0
-1077.22 -3058.75 0
0 0 0

1781.37 -146.785 0
-146.785 -1039.39 0
0 0 0

866.226 2695.2 0
2695.2 -1456.9 0
0 0 0

3619.21 509.68 0
509.68 -6672.89 0
0 0 0

7479.02 646.348 0
646.348 10621.9 0
0 0 0

-6648.23 -8310.82 0
-8310.82 -17961.8 0
0 0 0

-192.33 146.024 0
146.024 -3379.66 0
0 0 0

-2506.84 1001.26 0
1001.26 -2484.45 0
0 0 0

726.691 -754.095 0
-754.095 223.111 0
0 0 0

-1116.82 -702.227 0
-702.227 -1424.97 0
0 0 0

3146.48 -578.241 0
-578.241 -355.825 0
0 0 0

-2003.09 995.758 0
995.758 -1429.03 0
0 0 0

-526.775 -134.336 0
-134.336 -1219.69 0
0 0 0

2431.06 487.039 0
487.039 -1393.02 0
0 0 0

-1472.09 -1171.46 0
-1171.46 -1454.04 0
0 0 0

4691.48 1161.61 0
1161.61 -2380.38 0
0 0 0

-803.183 -661.672 0
-661.672 -4902.44 0
0 0 0

1272.56 257.931 0
257.931 -1312.77 0
0 0 0

4801.41 -843.975 0
-843.975 4298.92 0
0 0 0

3987.09 -3048.24 0
-3048.24 795.446 0
0 0 0

679.121 -326.221 0
-326.221 1123.7 0
0 0 0

1494.64 1769.12 0
1769.12 -869.183 0
0 0 0

TENSORS velocity_gradient double
1.81422 -1.98351 0
-0.703193 -0.949141 0
0 0 0

0.286073 -2.41292 0
-0.842088 -1.03211 0
0 0 0

1.70024 -4.33724 0
-0.460949 0.89781 0
0 0 0

0.780368 -3.2482 0
-0.771271 -1.15178 0
0 0 0

0.181476 -3.53286 0
-1.23963 -1.59695 0
0 0 0

2.20428 -2.35617 0
-1.05908 -2.29824 0
0 0 0

1.55073 -3.72037 0
3.26695 -1.24781 0
0 0 0

2.41676 -1.6809 0
5.32398 -2.52551 0
0 0 0

2.627 -3.09023 0
5.37889 -2.18265 0
0 0 0

0.565196 -8.1598 0
5.1078 -1.56781 0
0 0 0

2.69615 -1.46407 0
5.37809 -2.48352 0
0 0 0

2.15921 -9.59862 0
7.08565 -1.91063 0
0 0 0

-2.12087 -9.82997 0
4.74993 -1.79033 0
0 0 0

1.43086 -12.8973 0
10.6812 1.39892 0
0 0 0

3.29243 -10.5184 0
13.1526 -1.70843 0
0 0 0

3.81306 -13.3033 0
12.9695 -2.48302 0
0 0 0

2.38714 -6.45914 0
0.600638 1.32062 0
0 0 0

2.85781 -3.88006 0
5.67202 -1.30733 0
0 0 0

2.11713 -6.31526 0
5.97352 0.861477 0
0 0 0

2.75456 -5.8971 0
5.79223 0.74255 0
0 0 0

2.55962 -4.07423 0
5.48628 -1.42828 0
0 0 0

2.33313 -3.13022 0
5.33074 -1.92275 0
0 0 0

2.74815 -4.36653 0
5.61442 -1.60959 0
0 0 0

1.58157 -4.01137 0
8.80593 -1.11152 0
0 0 0

2.26721 -1.31613 0
9.10876 -2.21531 0
0 0 0

1.84886 -1.47339 0
12.0126 -1.53496 0
0 0 0

2.32623 -1.66389 0
10.1559 -1.10212 0
0 0 0

2.06606 -1.77616 0
11.2172 -0.426195 0
0 0 0

2.37571 -9.27675 0
12.8043 -1.23663 0
0 0 0

6.11926 -7.62438 0
15.4653 -0.13534 0
0 0 0

-0.617133 -2.87346 0
8.64331 0.530126 0
0 0 0

4.96928 -1.26977 0
13.8537 5.8621 0
0 0 0

1.69754 -5.69739 0
6.09285 0.685751 0
0 0 0

1.02362 -5.39617 0
5.77566 0.685966 0
0 0 0

-0.00185679 -7.22404 0
4.56889 -1.45386 0
0 0 0

-0.191598 -5.44987 0
5.2368 1.19672 0
0 0 0

-0.255887 -4.46336 0
6.39528 0.173619 0
0 0 0

0.78649 -2.77329 0
7.81477 0.43189 0
0 0 0

-0.356298 -5.56456 0
5.83854 1.61577 0
0 0 0

-0.793406 -1.72608 0
4.29169 1.80478 0
0 0 0

1.93629 -1.93887 0
9.24813 1.47209 0
0 0 0

-1.75298 -2.12461 0
3.67352 0.793479 0
0 0 0

-1.4893 -1.57305 0
2.4923 2.22256 0
0 0 0

-1.55299 -1.88778 0
2.9476 2.44518 0
0 0 0

-2.21487 -2.43 0
5.20815 1.80813 0
0 0 0

-0.629749 4.45905 0
8.23005 10.8514 0
0 0 0

-1.92738 -2.89545 0
4.26641 3.42165 0
0 0 0

1.55797 -2.01006 0
4.18512 4.39317 0
0 0 0

0.14441 -7.57213 0
4.09264 -0.873666 0
0 0 0

-0.0742012 -6.29014 0
4.81658 1.08303 0
0 0 0

-0.500091 -7.74791 0
3.57569 -0.34023 0
0 0 0

-1.47162 -7.70546 0
2.63583 -0.629119 0
0 0 0

-1.37274 -5.69179 0
2.20115 2.02517 0
0 0 0

-1.44247 -5.71402 0
1.99977 1.97132 0
0 0 0

-1.39344 -5.72407 0
2.14391 1.94179 0
0 0 0

-1.42352 -5.74287 0
2.05549 1.88653 0
0 0 0

-1.46968 -1.60061 0
2.2235 2.60025 0
0 0 0

-2.53239 -1.65313 0
2.02277 2.80283 0
0 0 0

-3.45937 -3.93197 0
0.109301 3.60343 0
0 0 0

-3.6481 -1.9017 0
1.34583 2.82052 0
0 0 0

-3.30147 -1.00158 0
1.65941 4.64012 0
0 0 0

-0.497572 1.12322 0
3.1187 6.01873 0
0 0 0

-3.90546 -2.1094 0
1.29654 2.78074 0
0 0 0

-3.98712 3.18991 0
-0.971181 7.1884 0
0 0 0

SCALARS active double 1
LOOKUP_TABLE default
1
1
1
1
1
1
1
1
1
1
1
1
1
1
1
1
1
1
1
1
1
1
1
1
1
1
1
1
1
1
1
1
1
1
1
1
1
1
1
1
1
1
1
1
1
1
1
1
1
1
1
1
1
1
1
1
1
1
1
1
1
1
1
1
SCALARS extent double 1
LOOKUP_TABLE default
0.0125
0.0125
0.0125
0.0125
0.0125
0.0125
0.0125
0.0125
0.0125
0.0125
0.0125
0.0125
0.0125
0.0125
0.0125
0.0125
0.0125
0.0125
0.0125
0.0125
0.0125
0.0125
0.0125
0.0125
0.0125
0.0125
0.0125
0.0125
0.0125
0.0125
0.0125
0.0125
0.0125
0.0125
0.0125
0.0125
0.0125
0.0125
0.0125
0.0125
0.0125
0.0125
0.0125
0.0125
0.0125
0.0125
0.0125
0.0125
0.0125
0.0125
0.0125
0.0125
0.0125
0.0125
0.0125
0.0125
0.0125
0.0125
0.0125
0.0125
0.0125
0.0125
0.0125
0.0125
SCALARS pressure double 1
LOOKUP_TABLE default
1281.69
-642.56
3752.83
-360.968
-1617.01
1254.64
-1983.75
3288.96
-1657.66
1544.64
-3149.26
1697.02
-1054.47
-2155.37
-9328.05
-1938.83
-310.81
-192.249
958.575
-86.8065
500.38
158.887
956.565
-347.582
129.21
2242.06
3628.51
-213.562
-4169.5
7294.69
-60.893
6785.79
-1419.76
-313.096
-1635.02
792.242
2344.88
-4114.84
-97.9452
-2420.16
3484.98
6316.26
2302
-370.987
295.337
1526.84
-9050.47
12305
1786
2495.65
-474.901
1270.9
-1395.33
1716.06
873.23
-519.02
1463.06
-1155.55
2852.81
20.1084
-4550.16
-2391.27
-901.408
-312.731
SCALARS density double 1
LOOKUP_TABLE default
1013.42
993.34
1039.8
996.253
983.324
1013.13
979.58
1034.8
982.908
1016.19
967.778
1017.81
989.093
977.834
907.545
980.038
996.773
998.003
1010.02
999.098
1005.22
1001.65
1010
996.392
1001.34
1023.59
1038.46
997.781
957.564
1078.82
999.367
1073.12
985.343
996.749
983.14
1008.27
1024.69
958.108
998.982
975.144
1036.91
1067.89
1024.23
996.149
1003.08
1016.01
910.169
1136.52
1018.75
1026.29
995.073
1013.31
985.593
1018.01
1009.12
994.617
1015.33
988.054
1030.11
1000.21
953.781
975.438
990.669
996.753
