# vtk DataFile Version 3.0
Frame: 20, Time: 0.34
ASCII
DATASET UNSTRUCTURED_GRID
POINTS 64 double
0.988365 0.0691899 0 
0.967667 0.0546018 0 
0.974107 0.0901894 0 
0.953933 0.0758853 0 
0.940456 0.0446697 0 
0.914045 0.0370869 0 
0.927877 0.0659069 0 
0.903132 0.0571262 0 
0.884197 0.0315055 0 
0.853225 0.0288423 0 
0.877429 0.0498149 0 
0.849212 0.0462454 0 
0.823527 0.025228 0 
0.791235 0.0205763 0 
0.821438 0.0403385 0 
0.790578 0.0321142 0 
0.95894 0.111845 0 
0.939518 0.0975528 0 
0.945447 0.133025 0 
0.925126 0.119059 0 
0.91685 0.0873344 0 
0.892312 0.0778158 0 
0.902717 0.107853 0 
0.879466 0.0974799 0 
0.865692 0.0699444 0 
0.839495 0.0645884 0 
0.854455 0.0897695 0 
0.827121 0.0824131 0 
0.813535 0.0570499 0 
0.785107 0.0464768 0 
0.80101 0.0726907 0 
0.774989 0.0608314 0 
0.929406 0.153386 0 
0.909182 0.138477 0 
0.913557 0.173839 0 
0.893276 0.159689 0 
0.886461 0.127852 0 
0.863849 0.117416 0 
0.871312 0.147992 0 
0.848129 0.137196 0 
0.839144 0.108872 0 
0.813393 0.100673 0 
0.824331 0.127803 0 
0.799234 0.118584 0 
0.788072 0.0893751 0 
0.762777 0.0766091 0 
0.774737 0.107413 0 
0.751067 0.094265 0 
0.89799 0.194205 0 
0.877584 0.180138 0 
0.882739 0.214367 0 
0.862258 0.200253 0 
0.856156 0.167868 0 
0.832925 0.15779 0 
0.840919 0.188697 0 
0.818064 0.178658 0 
0.809555 0.147699 0 
0.784978 0.137064 0 
0.795216 0.168244 0 
0.771131 0.15769 0 
0.760645 0.126046 0 
0.738105 0.112239 0 
0.746145 0.145847 0 
0.724041 0.131639 0 
CELLS 64 128
1 0
1 1
1 2
1 3
1 4
1 5
1 6
1 7
1 8
1 9
1 10
1 11
1 12
1 13
1 14
1 15
1 16
1 17
1 18
1 19
1 20
1 21
1 22
1 23
1 24
1 25
1 26
1 27
1 28
1 29
1 30
1 31
1 32
1 33
1 34
1 35
1 36
1 37
1 38
1 39
1 40
1 41
1 42
1 43
1 44
1 45
1 46
1 47
1 48
1 49
1 50
1 51
1 52
1 53
1 54
1 55
1 56
1 57
1 58
1 59
1 60
1 61
1 62
1 63
CELL_TYPES 64
1
1
1
1
1
1
1
1
1
1
1
1
1
1
1
1
1
1
1
1
1
1
1
1
1
1
1
1
1
1
1
1
1
1
1
1
1
1
1
1
1
1
1
1
1
1
1
1
1
1
1
1
1
1
1
1
1
1
1
1
1
1
1
1
POINT_DATA 64
VECTORS displacement double
0.375865 -0.24331 0 
0.355167 -0.282898 0 
0.336607 -0.222311 0 
0.316433 -0.261615 0 
0.327956 -0.31783 0 
0.301545 -0.350413 0 
0.290377 -0.296593 0 
0.265632 -0.330374 0 
0.271697 -0.380994 0 
0.240725 -0.408658 0 
0.239929 -0.362685 0 
0.211712 -0.391255 0 
0.211027 -0.437272 0 
0.178735 -0.466924 0 
0.183938 -0.422162 0 
0.153078 -0.455386 0 
0.29644 -0.200655 0 
0.277018 -0.239947 0 
0.257947 -0.179475 0 
0.237626 -0.218441 0 
0.25435 -0.275166 0 
0.229812 -0.309684 0 
0.215217 -0.254647 0 
0.191966 -0.29002 0 
0.203192 -0.342556 0 
0.176995 -0.372912 0 
0.166955 -0.322731 0 
0.139621 -0.355087 0 
0.151035 -0.40545 0 
0.122607 -0.441023 0 
0.11351 -0.389809 0 
0.0874894 -0.426669 0 
0.216906 -0.159114 0 
0.196682 -0.199023 0 
0.176057 -0.138661 0 
0.155776 -0.177811 0 
0.173961 -0.234648 0 
0.151349 -0.270084 0 
0.133812 -0.214508 0 
0.110629 -0.250304 0 
0.126644 -0.303628 0 
0.100893 -0.336827 0 
0.0868313 -0.284697 0 
0.0617337 -0.318916 0 
0.0755716 -0.373125 0 
0.0502771 -0.410891 0 
0.0372373 -0.355087 0 
0.0135672 -0.393235 0 
0.13549 -0.118295 0 
0.115084 -0.157362 0 
0.0952394 -0.0981331 0 
0.0747578 -0.137247 0 
0.0936561 -0.194632 0 
0.0704249 -0.22971 0 
0.0534195 -0.173803 0 
0.0305638 -0.208842 0 
0.0470553 -0.264801 0 
0.0224779 -0.300436 0 
0.00771588 -0.244256 0 
-0.0163688 -0.27981 0 
-0.00185461 -0.336454 0 
-0.0243948 -0.375261 0 
-0.0413547 -0.316653 0 
-0.0634591 -0.355861 0 
VECTORS velocity double
0.753713 -0.166523 0 
0.812959 -0.54013 0 
0.876059 -0.231978 0 
0.95843 -0.658189 0 
0.481614 -0.0161952 0 
0.621296 -0.0250916 0 
0.593945 -0.10699 0 
-0.146832 0.421902 0 
0.809492 -0.0811441 0 
0.469729 -0.212125 0 
-0.382919 0.49714 0 
-0.532917 0.388174 0 
1.29325 -0.0633714 0 
1.07433 -0.426197 0 
-0.086017 0.784124 0 
0.0117623 0.170008 0 
0.911438 -0.340502 0 
1.04074 -0.309995 0 
0.836636 0.3591 0 
1.22088 -0.0974184 0 
1.06143 -0.0933613 0 
0.590429 0.340328 0 
1.01541 -0.0154183 0 
0.709432 0.195975 0 
0.341269 0.261363 0 
0.20836 0.127363 0 
0.552339 0.391737 0 
0.356738 0.49032 0 
0.264404 0.269792 0 
0.293526 0.332927 0 
0.340281 0.339651 0 
0.57832 0.28146 0 
0.621068 0.0494034 0 
1.16893 -0.328091 0 
0.830106 0.296458 0 
0.84924 -0.0668272 0 
0.990398 -0.0963886 0 
0.756692 0.213545 0 
0.642691 0.177913 0 
0.245603 0.271733 0 
0.549383 0.387359 0 
0.259214 0.476037 0 
0.19827 0.429873 0 
-0.0424364 0.495331 0 
0.228351 0.674152 0 
0.82734 0.651273 0 
-0.102295 1.06055 0 
0.276251 0.77767 0 
1.06708 0.111315 0 
1.27327 0.105693 0 
0.989988 0.189094 0 
1.08394 -0.116354 0 
1.16856 0.15122 0 
0.964955 0.51719 0 
1.25458 0.328294 0 
1.12828 0.695021 0 
0.474202 0.673359 0 
0.3107 0.619522 0 
0.957883 1.01626 0 
0.867215 0.791827 0 
0.543567 1.1199 0 
0.647172 0.685648 0 
0.291683 1.11276 0 
0.561654 1.12545 0 
SCALARS mass double 1
LOOKUP_TABLE default
0.625
0.625
0.625
0.625
0.625
0.625
0.625
0.625
0.625
0.625
0.625
0.625
0.625
0.625
0.625
0.625
0.625
0.625
0.625
0.625
0.625
0.625
0.625
0.625
0.625
0.625
0.625
0.625
0.625
0.625
0.625
0.625
0.625
0.625
0.625
0.625
0.625
0.625
0.625
0.625
0.625
0.625
0.625
0.625
0.625
0.625
0.625
0.625
0.625
0.625
0.625
0.625
0.625
0.625
0.625
0.625
0.625
0.625
0.625
0.625
0.625
0.625
0.625
0.625
SCALARS volume double 1
LOOKUP_TABLE default
0.000631945
0.000647703
0.000624978
0.00065336
0.000615688
0.000526299
0.00063723
0.000618191
0.000442559
0.000416269
0.000601541
0.000561427
0.000363219
0.000298313
0.000528817
0.000453791
0.000627988
0.000642043
0.000647788
0.000616533
0.000590394
0.000594985
0.000625714
0.000605643
0.000579117
0.000539079
0.000614237
0.000572459
0.000511981
0.000500295
0.000539721
0.000524755
0.000628215
0.000619199
0.000628074
0.000633941
0.000607061
0.000588657
0.000617218
0.000617823
0.000593895
0.000607751
0.000611429
0.000581189
0.000595252
0.000566847
0.000584934
0.000583378
0.000623359
0.000615921
0.000618867
0.00060183
0.000610786
0.000625262
0.00061432
0.000609209
0.000629696
0.000617361
0.000621938
0.00065718
0.000617084
0.000585157
0.000638106
0.000646898
VECTORS momentum double
0.471071 -0.104077 0 
0.508099 -0.337581 0 
0.547537 -0.144986 0 
0.599019 -0.411368 0 
0.301009 -0.010122 0 
0.38831 -0.0156823 0 
0.371215 -0.0668685 0 
-0.0917701 0.263689 0 
0.505932 -0.0507151 0 
0.293581 -0.132578 0 
-0.239324 0.310713 0 
-0.333073 0.242609 0 
0.808278 -0.0396071 0 
0.671456 -0.266373 0 
-0.0537606 0.490077 0 
0.00735143 0.106255 0 
0.569649 -0.212814 0 
0.650461 -0.193747 0 
0.522898 0.224438 0 
0.763048 -0.0608865 0 
0.663394 -0.0583508 0 
0.369018 0.212705 0 
0.63463 -0.00963641 0 
0.443395 0.122484 0 
0.213293 0.163352 0 
0.130225 0.0796022 0 
0.345212 0.244836 0 
0.222961 0.30645 0 
0.165252 0.16862 0 
0.183454 0.208079 0 
0.212675 0.212282 0 
0.36145 0.175913 0 
0.388167 0.0308771 0 
0.730581 -0.205057 0 
0.518816 0.185286 0 
0.530775 -0.041767 0 
0.618999 -0.0602429 0 
0.472933 0.133466 0 
0.401682 0.111195 0 
0.153502 0.169833 0 
0.343365 0.242099 0 
0.162008 0.297523 0 
0.123919 0.26867 0 
-0.0265227 0.309582 0 
0.142719 0.421345 0 
0.517088 0.407045 0 
-0.0639342 0.662842 0 
0.172657 0.486044 0 
0.666923 0.0695722 0 
0.795791 0.0660579 0 
0.618742 0.118183 0 
0.67746 -0.0727212 0 
0.730347 0.0945123 0 
0.603097 0.323244 0 
0.784115 0.205184 0 
0.705172 0.434388 0 
0.296376 0.420849 0 
0.194187 0.387201 0 
0.598677 0.63516 0 
0.542009 0.494892 0 
0.339729 0.699939 0 
0.404483 0.42853 0 
0.182302 0.695473 0 
0.351034 0.703406 0 
VECTORS body_force double
0 -9.81 0 
0 -9.81 0 
0 -9.81 0 
0 -9.81 0 
0 -9.81 0 
0 -9.81 0 
0 -9.81 0 
0 -9.81 0 
0 -9.81 0 
0 -9.81 0 
0 -9.81 0 
0 -9.81 0 
0 -9.81 0 
0 -9.81 0 
0 -9.81 0 
0 -9.81 0 
0 -9.81 0 
0 -9.81 0 
0 -9.81 0 
0 -9.81 0 
0 -9.81 0 
0 -9.81 0 
0 -9.81 0 
0 -9.81 0 
0 -9.81 0 
0 -9.81 0 
0 -9.81 0 
0 -9.81 0 
0 -9.81 0 
0 -9.81 0 
0 -9.81 0 
0 -9.81 0 
0 -9.81 0 
0 -9.81 0 
0 -9.81 0 
0 -9.81 0 
0 -9.81 0 
0 -9.81 0 
0 -9.81 0 
0 -9.81 0 
0 -9.81 0 
0 -9.81 0 
0 -9.81 0 
0 -9.81 0 
0 -9.81 0 
0 -9.81 0 
0 -9.81 0 
0 -9.81 0 
0 -9.81 0 
0 -9.81 0 
0 -9.81 0 
0 -9.81 0 
0 -9.81 0 
0 -9.81 0 
0 -9.81 0 
0 -9.81 0 
0 -9.81 0 
0 -9.81 0 
0 -9.81 0 
0 -9.81 0 
0 -9.81 0 
0 -9.81 0 
0 -9.81 0 
0 -9.81 0 
TENSORS cauchy_stress double
-233.528 2121.47 0
2121.47 2358.61 0
0 0 0

5375.56 1117.1 0
1117.1 1486.16 0
0 0 0

64.31 -1125.89 0
-1125.89 -71.0248 0
0 0 0

7076.65 -1841.26 0
-1841.26 1457.39 0
0 0 0

9082.9 1321.57 0
1321.57 -11969.8 0
0 0 0

2339.66 4576.35 0
4576.35 -35393.9 0
0 0 0

10521 -5456.15 0
-5456.15 -6794.24 0
0 0 0

6966.69 -6197.32 0
-6197.32 -9073.26 0
0 0 0

-8648.47 8693.6 0
8693.6 -57731.9 0
0 0 0

-10247.2 6435.75 0
6435.75 -67910.5 0
0 0 0

9172.8 -6161.71 0
-6161.71 -16529.9 0
0 0 0

3908.95 -1986.79 0
-1986.79 -24537.8 0
0 0 0

-16524 10450.6 0
10450.6 -87850.2 0
0 0 0

-25326.8 18988.3 0
18988.3 -116906 0
0 0 0

1871.44 4367.25 0
4367.25 -34007.7 0
0 0 0

-2495.82 16832.4 0
16832.4 -59064.6 0
0 0 0

-1621.71 -1153.22 0
-1153.22 2538.94 0
0 0 0

3502.77 -2699.77 0
-2699.77 1670.92 0
0 0 0

4837.38 -2139.94 0
-2139.94 2049.37 0
0 0 0

1428.39 -2238.33 0
-2238.33 -4051.3 0
0 0 0

-103.362 -2243.91 0
-2243.91 -10850.6 0
0 0 0

5171.64 2667.35 0
2667.35 -14636.2 0
0 0 0

8395.93 -6676.43 0
-6676.43 -8176.36 0
0 0 0

7082.73 -6219.61 0
-6219.61 -13132.9 0
0 0 0

4309.89 -4622.75 0
-4622.75 -18972.9 0
0 0 0

930.334 -2185.98 0
-2185.98 -29370.5 0
0 0 0

13223.5 -5988.87 0
-5988.87 -16564.1 0
0 0 0

8025.05 -934.428 0
-934.428 -24911.8 0
0 0 0

-1577.75 3728.58 0
3728.58 -36780.9 0
0 0 0

-621.193 14429.8 0
14429.8 -42177.8 0
0 0 0

2304.98 5996.58 0
5996.58 -30516.3 0
0 0 0

-1324.45 9713.22 0
9713.22 -32295 0
0 0 0

1524.69 -535.146 0
-535.146 -538.12 0
0 0 0

2218.5 -3652.94 0
-3652.94 -4011.63 0
0 0 0

651.009 -1237.39 0
-1237.39 292.389 0
0 0 0

4513.15 -4898.99 0
-4898.99 -1781.51 0
0 0 0

5654.32 -4655.19 0
-4655.19 -11254.9 0
0 0 0

4526.05 -5871.97 0
-5871.97 -16046.7 0
0 0 0

5481.24 -2718.23 0
-2718.23 -7890.74 0
0 0 0

5921.57 -4951.19 0
-4951.19 -8142.64 0
0 0 0

8950.74 -4640.1 0
-4640.1 -18767.8 0
0 0 0

12842.3 -3450.1 0
-3450.1 -18224.3 0
0 0 0

10007.5 -6662.94 0
-6662.94 -14229.1 0
0 0 0

5990.73 1422.05 0
1422.05 -19966.8 0
0 0 0

5520.42 3502.55 0
3502.55 -14898.6 0
0 0 0

-169.193 8921.19 0
8921.19 -18612.1 0
0 0 0

2501.97 2362.86 0
2362.86 -15242.8 0
0 0 0

-3848.63 6942.9 0
6942.9 -9404.49 0
0 0 0

1470.32 -1754.65 0
-1754.65 -1975.79 0
0 0 0

1486.47 -1308.57 0
-1308.57 -4300.65 0
0 0 0

39.9475 -1569.37 0
-1569.37 -1936.28 0
0 0 0

-3489.72 -1831.56 0
-1831.56 -3774.89 0
0 0 0

6269.37 -5894.61 0
-5894.61 -10693.5 0
0 0 0

7429.81 -4308.72 0
-4308.72 -7349.17 0
0 0 0

2853.9 -4367.85 0
-4367.85 -6168.56 0
0 0 0

1134.05 -4363.23 0
-4363.23 -6055.2 0
0 0 0

10021.6 -2443.4 0
-2443.4 -8582.24 0
0 0 0

8169.45 -1777 0
-1777 -10534.3 0
0 0 0

3373.66 -1321.68 0
-1321.68 -4318.04 0
0 0 0

12164.6 263.594 0
263.594 -2509.41 0
0 0 0

6721.36 102.933 0
102.933 -9172.52 0
0 0 0

-2358.57 5242.51 0
5242.51 -10309.1 0
0 0 0

3586.61 1448.72 0
1448.72 404.219 0
0 0 0

4667.55 2061.15 0
2061.15 1954.8 0
0 0 0

TENSORS velocity_gradient double
0.951029 2.64434 0
-2.39308 0.47138 0
0 0 0

2.30045 5.70456 0
-2.65653 -0.565982 0
0 0 0

-1.13742 4.07205 0
-1.93842 0.16056 0
0 0 0

1.24518 6.02534 0
-3.3587 -0.316154 0
0 0 0

5.17107 11.2321 0
-7.00688 -2.58292 0
0 0 0

4.35534 8.52826 0
-5.88235 1.42008 0
0 0 0

4.79801 7.92925 0
-7.1791 -1.43035 0
0 0 0

5.10704 9.35657 0
-6.01111 -2.36262 0
0 0 0

2.44499 5.66842 0
-0.860594 4.03908 0
0 0 0

1.10183 3.50821 0
-0.658799 4.85844 0
0 0 0

3.82932 6.61343 0
-1.53734 1.89822 0
0 0 0

-0.444275 3.97378 0
-0.860392 4.34389 0
0 0 0

-2.0116 5.15001 0
-0.239361 5.2258 0
0 0 0

-1.94577 7.87485 0
-2.04253 6.34065 0
0 0 0

-3.21639 5.32421 0
-0.38272 5.24653 0
0 0 0

-3.03662 7.94613 0
-3.18762 6.41547 0
0 0 0

-2.45842 -2.38056 0
-4.28878 3.93171 0
0 0 0

2.61619 4.51297 0
-5.51838 0.745117 0
0 0 0

-0.438802 -1.66041 0
-2.02925 4.84457 0
0 0 0

0.905285 0.00626354 0
-3.24908 2.52699 0
0 0 0

3.34831 8.6856 0
-6.1574 -1.96341 0
0 0 0

5.70404 9.23643 0
-3.79482 -2.00879 0
0 0 0

3.52859 1.82179 0
-4.96312 0.0571987 0
0 0 0

6.75548 6.96417 0
-5.32795 -0.840914 0
0 0 0

5.18347 7.51135 0
-3.09707 0.303437 0
0 0 0

-1.49191 4.61579 0
-1.56608 2.46596 0
0 0 0

5.84278 6.64862 0
-4.58762 1.28156 0
0 0 0

1.62998 2.42801 0
-2.91771 3.41316 0
0 0 0

-2.81946 0.041668 0
-0.991312 4.44633 0
0 0 0

-4.23636 6.3044 0
-4.49875 6.7016 0
0 0 0

-1.81901 -1.77152 0
-3.49374 5.20858 0
0 0 0

-4.4 -3.16573 0
-5.06473 5.62614 0
0 0 0

-1.8898 -0.242727 0
0.501085 2.70921 0
0 0 0

-0.701771 1.33109 0
-0.914184 0.602149 0
0 0 0

-3.39632 0.951246 0
1.46054 1.95048 0
0 0 0

2.64845 2.90481 0
-4.36422 0.992538 0
0 0 0

5.37654 2.94186 0
-5.28474 -0.636347 0
0 0 0

6.05647 4.38636 0
-5.46155 -1.01197 0
0 0 0

3.94131 4.5456 0
-4.86686 -0.6823 0
0 0 0

4.12761 5.22842 0
-6.72726 -0.830733 0
0 0 0

4.57233 5.52495 0
-5.00335 -0.275841 0
0 0 0

4.17394 3.19005 0
-4.32687 3.13376 0
0 0 0

4.09176 5.90392 0
-6.59528 0.979552 0
0 0 0

0.740994 6.18154 0
-5.51287 2.77206 0
0 0 0

-3.41758 -2.70937 0
-5.25659 5.53702 0
0 0 0

-3.86045 -3.58731 0
-5.1701 5.70847 0
0 0 0

-2.55063 4.6757 0
-5.32404 2.9623 0
0 0 0

-3.36573 -3.85379 0
-4.12136 6.28263 0
0 0 0

-2.74301 2.2882 0
-1.20054 1.24794 0
0 0 0

-0.0970031 5.02707 0
-3.20298 0.094891 0
0 0 0

-2.22529 -0.433076 0
-0.890752 1.19875 0
0 0 0

-2.25006 2.87676 0
-1.97809 -0.637424 0
0 0 0

1.63427 7.86523 0
-4.34506 -1.06664 0
0 0 0

3.05241 9.72409 0
-8.89433 -0.493111 0
0 0 0

1.11343 9.24348 0
-10.5072 -0.892903 0
0 0 0

1.75603 10.6645 0
-9.97271 0.289152 0
0 0 0

3.52595 7.5897 0
-8.21054 1.82821 0
0 0 0

-0.427471 5.40022 0
-5.28922 2.97418 0
0 0 0

0.252452 11.8591 0
-5.21347 1.05878 0
0 0 0

0.385393 12.4584 0
-5.15268 0.661014 0
0 0 0

-1.22423 3.65803 0
-5.30229 2.94561 0
0 0 0

-2.8713 2.13972 0
-3.61765 2.65222 0
0 0 0

-0.504896 3.46684 0
-3.23774 2.59734 0
0 0 0

-1.64074 1.23907 0
-3.17787 2.33034 0
0 0 0

SCALARS active double 1
LOOKUP_TABLE default
1
1
1
1
1
1
1
1
1
1
1
1
1
1
1
1
1
1
1
1
1
1
1
1
1
1
1
1
1
1
1
1
1
1
1
1
1
1
1
1
1
1
1
1
1
1
1
1
1
1
1
1
1
1
1
1
1
1
1
1
1
1
1
1
SCALARS extent double 1
LOOKUP_TABLE default
0.0125
0.0125
0.0125
0.0125
0.0125
0.0125
0.0125
0.0125
0.0125
0.0125
0.0125
0.0125
0.0125
0.0125
0.0125
0.0125
0.0125
0.0125
0.0125
0.0125
0.0125
0.0125
0.0125
0.0125
0.0125
0.0125
0.0125
0.0125
0.0125
0.0125
0.0125
0.0125
0.0125
0.0125
0.0125
0.0125
0.0125
0.0125
0.0125
0.0125
0.0125
0.0125
0.0125
0.0125
0.0125
0.0125
0.0125
0.0125
0.0125
0.0125
0.0125
0.0125
0.0125
0.0125
0.0125
0.0125
0.0125
0.0125
0.0125
0.0125
0.0125
0.0125
0.0125
0.0125
SCALARS pressure double 1
LOOKUP_TABLE default
-1062.54
-3430.86
3.35741
-4267.02
1443.47
16527.1
-1863.4
1053.28
33190.2
39078.9
3678.58
10314.4
52187.1
71116.3
16068.1
30780.2
-458.616
-2586.85
-3443.37
1311.46
5477.01
4732.25
-109.785
3025.08
7331.51
14220.1
1670.34
8443.38
19179.3
21399.5
14105.7
16809.7
-493.286
896.564
-471.699
-1365.82
2800.27
5760.32
1204.75
1110.54
4908.5
2690.99
2110.79
6988.02
4689.08
9390.63
6370.41
6626.56
252.737
1407.09
948.166
3632.31
2212.09
-40.3197
1657.33
2460.58
-719.7
1182.41
472.189
-4827.57
1225.58
6333.83
-1995.41
-3311.18
SCALARS density double 1
LOOKUP_TABLE default
989.01
964.948
1000.03
956.593
1015.13
1187.54
980.807
1011.01
1412.24
1501.43
1039
1113.24
1720.73
2095.12
1181.88
1377.29
995.242
973.455
964.823
1013.73
1058.61
1050.45
998.859
1031.96
1079.23
1159.38
1017.52
1091.78
1220.75
1249.26
1158.01
1191.03
994.883
1009.37
995.106
985.896
1029.55
1061.74
1012.61
1011.62
1052.37
1028.38
1022.19
1075.38
1049.98
1102.59
1068.5
1071.35
1002.63
1014.74
1009.91
1038.5
1023.27
999.581
1017.39
1025.92
992.543
1012.37
1004.92
951.033
1012.83
1068.09
979.462
966.15
