# vtk DataFile Version 3.0
Frame: 5, Time: 0.085
ASCII
DATASET UNSTRUCTURED_GRID
POINTS 64 double
0.546038 0.277909 0 
0.540634 0.304367 0 
0.565196 0.278029 0 
0.560703 0.305218 0 
0.535275 0.327925 0 
0.524785 0.349141 0 
0.555924 0.332291 0 
0.546802 0.356497 0 
0.513252 0.371153 0 
0.504858 0.395152 0 
0.53743 0.379703 0 
0.529038 0.402728 0 
0.495572 0.419039 0 
0.489803 0.443054 0 
0.520146 0.42611 0 
0.514523 0.449936 0 
0.588643 0.284146 0 
0.583172 0.31005 0 
0.612675 0.290456 0 
0.606613 0.315275 0 
0.57807 0.336478 0 
0.569887 0.361709 0 
0.600916 0.340363 0 
0.593339 0.365412 0 
0.561544 0.386037 0 
0.553052 0.409142 0 
0.585736 0.390121 0 
0.577575 0.413992 0 
0.54462 0.432502 0 
0.539484 0.456426 0 
0.569654 0.437822 0 
0.56496 0.461994 0 
0.635893 0.295995 0 
0.630039 0.320499 0 
0.659406 0.301412 0 
0.653732 0.325843 0 
0.624082 0.344835 0 
0.616945 0.369455 0 
0.647712 0.350004 0 
0.640535 0.374381 0 
0.609831 0.394193 0 
0.602033 0.418554 0 
0.633352 0.398833 0 
0.626162 0.423154 0 
0.594437 0.442901 0 
0.590063 0.467382 0 
0.619175 0.447511 0 
0.615065 0.472072 0 
0.683777 0.307147 0 
0.677975 0.33169 0 
0.708047 0.312986 0 
0.701969 0.338061 0 
0.671797 0.355933 0 
0.664624 0.38006 0 
0.69558 0.362894 0 
0.68851 0.387015 0 
0.65723 0.404226 0 
0.650417 0.428322 0 
0.681263 0.410846 0 
0.674956 0.43404 0 
0.643998 0.452564 0 
0.640271 0.477143 0 
0.669063 0.457448 0 
0.665538 0.481475 0 
CELLS 64 128
1 0
1 1
1 2
1 3
1 4
1 5
1 6
1 7
1 8
1 9
1 10
1 11
1 12
1 13
1 14
1 15
1 16
1 17
1 18
1 19
1 20
1 21
1 22
1 23
1 24
1 25
1 26
1 27
1 28
1 29
1 30
1 31
1 32
1 33
1 34
1 35
1 36
1 37
1 38
1 39
1 40
1 41
1 42
1 43
1 44
1 45
1 46
1 47
1 48
1 49
1 50
1 51
1 52
1 53
1 54
1 55
1 56
1 57
1 58
1 59
1 60
1 61
1 62
1 63
CELL_TYPES 64
1
1
1
1
1
1
1
1
1
1
1
1
1
1
1
1
1
1
1
1
1
1
1
1
1
1
1
1
1
1
1
1
1
1
1
1
1
1
1
1
1
1
1
1
1
1
1
1
1
1
1
1
1
1
1
1
1
1
1
1
1
1
1
1
POINT_DATA 64
VECTORS displacement double
-0.0664616 -0.0345909 0 
-0.0718657 -0.0331334 0 
-0.0723039 -0.0344712 0 
-0.0767969 -0.0322824 0 
-0.0772249 -0.0345746 0 
-0.0877151 -0.0383589 0 
-0.0815757 -0.030209 0 
-0.090698 -0.0310035 0 
-0.0992476 -0.0413469 0 
-0.107642 -0.0423478 0 
-0.10007 -0.0327972 0 
-0.108462 -0.0347715 0 
-0.116928 -0.0434605 0 
-0.122697 -0.0444464 0 
-0.117354 -0.03639 0 
-0.122977 -0.0375643 0 
-0.0738574 -0.0283538 0 
-0.079328 -0.0274498 0 
-0.0748246 -0.0220441 0 
-0.080887 -0.0222246 0 
-0.08443 -0.0260218 0 
-0.0926129 -0.0257911 0 
-0.0865838 -0.0221371 0 
-0.0941609 -0.0220878 0 
-0.100956 -0.0264633 0 
-0.109448 -0.0283575 0 
-0.101764 -0.0223792 0 
-0.109925 -0.0235077 0 
-0.11788 -0.0299978 0 
-0.123016 -0.0310738 0 
-0.117846 -0.0246781 0 
-0.12254 -0.0255061 0 
-0.0766071 -0.0165051 0 
-0.0824612 -0.0170014 0 
-0.0780938 -0.0110875 0 
-0.0837682 -0.0116566 0 
-0.0884177 -0.0176645 0 
-0.0955551 -0.0180445 0 
-0.089788 -0.0124956 0 
-0.0969649 -0.0131195 0 
-0.102669 -0.0183068 0 
-0.110467 -0.0189464 0 
-0.104148 -0.0136674 0 
-0.111338 -0.0143461 0 
-0.118063 -0.0195985 0 
-0.122437 -0.0201184 0 
-0.118325 -0.0149889 0 
-0.122435 -0.0154275 0 
-0.0787227 -0.0053528 0 
-0.0845251 -0.00580991 0 
-0.0794528 0.000486381 0 
-0.0855305 0.000561084 0 
-0.0907026 -0.00656719 0 
-0.0978759 -0.00743953 0 
-0.09192 0.000394176 0 
-0.0989904 -0.000485267 0 
-0.10527 -0.00827358 0 
-0.112083 -0.0091779 0 
-0.106237 -0.00165421 0 
-0.112544 -0.0034602 0 
-0.118502 -0.00993562 0 
-0.122229 -0.0103567 0 
-0.118437 -0.00505185 0 
-0.121962 -0.00602541 0 
VECTORS velocity double
0.753437 -0.177862 0 
0.0751973 -0.579675 0 
1.76199 -0.605167 0 
1.32912 -1.00296 0 
0.328089 -1.1893 0 
0.480798 -1.58112 0 
0.854169 -0.480727 0 
0.508384 -0.691996 0 
0.793018 -1.47769 0 
1.11599 -1.09389 0 
0.800787 -0.987393 0 
0.939573 -1.01056 0 
1.11357 -1.30705 0 
0.365614 -1.62598 0 
0.96409 -0.933513 0 
0.143122 -1.05687 0 
2.02652 0.0118342 0 
1.29308 -0.56471 0 
1.78589 0.448169 0 
0.834043 -0.153037 0 
1.0404 -0.230392 0 
0.836705 -0.373536 0 
0.754111 -0.206542 0 
0.783824 -0.267234 0 
0.842346 -1.00897 0 
0.787911 -1.15266 0 
0.916204 -0.564145 0 
0.800434 -0.697555 0 
0.802299 -0.995074 0 
0.0485064 -1.00271 0 
0.749225 -0.634136 0 
-0.0592583 -0.700704 0 
1.56644 0.522276 0 
0.82064 0.188643 0 
1.65536 0.648931 0 
1.16847 0.546509 0 
0.69275 0.00294711 0 
0.766774 -0.101231 0 
1.01622 0.440656 0 
0.921365 0.258246 0 
0.963172 -0.15786 0 
0.809405 -0.189602 0 
0.929667 0.11367 0 
0.769227 0.115784 0 
0.61315 -0.184965 0 
-0.273804 -0.333809 0 
0.507755 0.126427 0 
-0.33546 0.0274156 0 
1.71845 0.971011 0 
1.32019 0.850758 0 
1.5223 1.29192 0 
1.09279 1.21272 0 
1.16624 0.769517 0 
1.0247 0.654846 0 
0.920711 1.28354 0 
0.901019 1.37094 0 
0.849558 0.498349 0 
0.6772 0.484396 0 
0.795543 1.36812 0 
0.667922 1.30624 0 
0.43122 0.492358 0 
-0.295122 0.463338 0 
0.446351 1.18775 0 
-0.233577 1.00868 0 
SCALARS mass double 1
LOOKUP_TABLE default
0.625
0.625
0.625
0.625
0.625
0.625
0.625
0.625
0.625
0.625
0.625
0.625
0.625
0.625
0.625
0.625
0.625
0.625
0.625
0.625
0.625
0.625
0.625
0.625
0.625
0.625
0.625
0.625
0.625
0.625
0.625
0.625
0.625
0.625
0.625
0.625
0.625
0.625
0.625
0.625
0.625
0.625
0.625
0.625
0.625
0.625
0.625
0.625
0.625
0.625
0.625
0.625
0.625
0.625
0.625
0.625
0.625
0.625
0.625
0.625
0.625
0.625
0.625
0.625
SCALARS volume double 1
LOOKUP_TABLE default
0.000438184
0.00043478
0.000630224
0.000620964
0.000420445
0.000529789
0.000592414
0.000611686
0.000592506
0.000632481
0.000621304
0.000631022
0.000624061
0.000622737
0.000621819
0.000636588
0.000629753
0.000630688
0.000614939
0.00062863
0.000593869
0.000601743
0.000604613
0.000627677
0.000588687
0.000612998
0.000611749
0.000626479
0.000617191
0.000638415
0.000625932
0.000636137
0.000594978
0.000603362
0.000629472
0.000619204
0.000592071
0.000616548
0.00061039
0.000622102
0.000607696
0.000633974
0.000608718
0.000620232
0.000634032
0.000631964
0.000632026
0.000634936
0.000630029
0.000622428
0.000627263
0.000640566
0.000614263
0.000625036
0.00063063
0.000626779
0.00062151
0.000623154
0.000611919
0.000608494
0.000630992
0.000636954
0.000619218
0.000623257
VECTORS momentum double
0.470898 -0.111163 0 
0.0469983 -0.362297 0 
1.10124 -0.378229 0 
0.830698 -0.626851 0 
0.205055 -0.743313 0 
0.300499 -0.988199 0 
0.533855 -0.300454 0 
0.31774 -0.432498 0 
0.495636 -0.923553 0 
0.697493 -0.683679 0 
0.500492 -0.617121 0 
0.587233 -0.631601 0 
0.695981 -0.816905 0 
0.228509 -1.01624 0 
0.602556 -0.583446 0 
0.0894512 -0.660547 0 
1.26657 0.0073964 0 
0.808177 -0.352944 0 
1.11618 0.280105 0 
0.521277 -0.095648 0 
0.650253 -0.143995 0 
0.522941 -0.23346 0 
0.471319 -0.129089 0 
0.48989 -0.167021 0 
0.526466 -0.630606 0 
0.492444 -0.720411 0 
0.572627 -0.35259 0 
0.500271 -0.435972 0 
0.501437 -0.621921 0 
0.0303165 -0.626696 0 
0.468265 -0.396335 0 
-0.0370365 -0.43794 0 
0.979024 0.326422 0 
0.5129 0.117902 0 
1.0346 0.405582 0 
0.730296 0.341568 0 
0.432969 0.00184194 0 
0.479234 -0.0632694 0 
0.63514 0.27541 0 
0.575853 0.161404 0 
0.601982 -0.0986624 0 
0.505878 -0.118501 0 
0.581042 0.0710437 0 
0.480767 0.0723649 0 
0.383219 -0.115603 0 
-0.171128 -0.208631 0 
0.317347 0.0790167 0 
-0.209663 0.0171348 0 
1.07403 0.606882 0 
0.825118 0.531724 0 
0.951434 0.80745 0 
0.682995 0.757952 0 
0.7289 0.480948 0 
0.640438 0.409279 0 
0.575444 0.802214 0 
0.563137 0.856835 0 
0.530974 0.311468 0 
0.42325 0.302748 0 
0.497214 0.855074 0 
0.417451 0.816399 0 
0.269512 0.307724 0 
-0.184451 0.289586 0 
0.27897 0.742343 0 
-0.145985 0.630423 0 
VECTORS body_force double
0 -9.81 0 
0 -9.81 0 
0 -9.81 0 
0 -9.81 0 
0 -9.81 0 
0 -9.81 0 
0 -9.81 0 
0 -9.81 0 
0 -9.81 0 
0 -9.81 0 
0 -9.81 0 
0 -9.81 0 
0 -9.81 0 
0 -9.81 0 
0 -9.81 0 
0 -9.81 0 
0 -9.81 0 
0 -9.81 0 
0 -9.81 0 
0 -9.81 0 
0 -9.81 0 
0 -9.81 0 
0 -9.81 0 
0 -9.81 0 
0 -9.81 0 
0 -9.81 0 
0 -9.81 0 
0 -9.81 0 
0 -9.81 0 
0 -9.81 0 
0 -9.81 0 
0 -9.81 0 
0 -9.81 0 
0 -9.81 0 
0 -9.81 0 
0 -9.81 0 
0 -9.81 0 
0 -9.81 0 
0 -9.81 0 
0 -9.81 0 
0 -9.81 0 
0 -9.81 0 
0 -9.81 0 
0 -9.81 0 
0 -9.81 0 
0 -9.81 0 
0 -9.81 0 
0 -9.81 0 
0 -9.81 0 
0 -9.81 0 
0 -9.81 0 
0 -9.81 0 
0 -9.81 0 
0 -9.81 0 
0 -9.81 0 
0 -9.81 0 
0 -9.81 0 
0 -9.81 0 
0 -9.81 0 
0 -9.81 0 
0 -9.81 0 
0 -9.81 0 
0 -9.81 0 
0 -9.81 0 
TENSORS cauchy_stress double
-55067.8 -13187.7 0
-13187.7 -13223.3 0
0 0 0

-47879.8 -10510.9 0
-10510.9 -21911 0
0 0 0

-5594.25 1345.54 0
1345.54 7194.87 0
0 0 0

-9268.77 -2728.96 0
-2728.96 8022.89 0
0 0 0

-42279 -6965.93 0
-6965.93 -33959.2 0
0 0 0

-15144.1 -8976.39 0
-8976.39 -16638.9 0
0 0 0

-10027.1 -2004.64 0
-2004.64 -270.141 0
0 0 0

-1291.32 -3430.36 0
-3430.36 -2849.44 0
0 0 0

-2988.82 -826.193 0
-826.193 -7278.59 0
0 0 0

2421.19 -4471.49 0
-4471.49 -133.12 0
0 0 0

1977.13 1077.34 0
1077.34 -3117.62 0
0 0 0

3177.34 -2596.89 0
-2596.89 -1333.37 0
0 0 0

1239.55 -1334.79 0
-1334.79 -1528.63 0
0 0 0

83.6791 -338.788 0
-338.788 -781.19 0
0 0 0

309.137 1926.47 0
1926.47 -1290.43 0
0 0 0

2364.23 2435.67 0
2435.67 1168.73 0
0 0 0

-2107.48 1550.83 0
1550.83 3564.26 0
0 0 0

-4831.64 -1007.88 0
-1007.88 6573.93 0
0 0 0

-2128.68 -83.6843 0
-83.6843 -992.353 0
0 0 0

-1129.62 -1335.92 0
-1335.92 2243.45 0
0 0 0

-9980.35 -3823.03 0
-3823.03 154.677 0
0 0 0

-4736.2 -8430.18 0
-8430.18 -2556.34 0
0 0 0

-4594.42 -3487.76 0
-3487.76 -1783.01 0
0 0 0

-54.2091 -6476.46 0
-6476.46 876.164 0
0 0 0

-3562.09 -4976.09 0
-4976.09 -7949.02 0
0 0 0

1464.22 -5884.44 0
-5884.44 -5193.2 0
0 0 0

-502.81 -4018.32 0
-4018.32 -3618.39 0
0 0 0

2823.49 -5504.81 0
-5504.81 -2368.85 0
0 0 0

915.466 -663.341 0
-663.341 -3333.31 0
0 0 0

3999.91 968.416 0
968.416 84.0561 0
0 0 0

1671.98 -269.425 0
-269.425 -1385.42 0
0 0 0

2879.15 2142.05 0
2142.05 517.519 0
0 0 0

-7232.11 -55.9028 0
-55.9028 -2234.77 0
0 0 0

-4782.03 -1386.5 0
-1386.5 -1993.86 0
0 0 0

-727.621 1444.55 0
1444.55 2098.82 0
0 0 0

-613.222 -1133.12 0
-1133.12 -1178.39 0
0 0 0

-5912.2 -1779.33 0
-1779.33 -4496.46 0
0 0 0

-2410.08 -4312.81 0
-4312.81 -208.38 0
0 0 0

-1900 -1135.31 0
-1135.31 -2648.67 0
0 0 0

-475.769 -3661.2 0
-3661.2 -418.122 0
0 0 0

-2647.24 -3587.6 0
-3587.6 -2752.29 0
0 0 0

3182.02 -5670.57 0
-5670.57 -440.462 0
0 0 0

-2774.64 -3384.32 0
-3384.32 -2301.54 0
0 0 0

-104.908 -3907.25 0
-3907.25 -1367.83 0
0 0 0

2392.88 -1502.61 0
-1502.61 366.248 0
0 0 0

1708.9 1594.73 0
1594.73 422.133 0
0 0 0

1872.61 -1349.6 0
-1349.6 277.14 0
0 0 0

2099.54 1930 0
1930 933.739 0
0 0 0

-680.898 2658.28 0
2658.28 2222.04 0
0 0 0

-1035.57 53.7755 0
53.7755 242.495 0
0 0 0

-464.561 459.204 0
459.204 1159.65 0
0 0 0

1331.32 -858.967 0
-858.967 3399.53 0
0 0 0

-2457.94 871.383 0
871.383 -874.571 0
0 0 0

27.3275 -1137.84 0
-1137.84 -16.1999 0
0 0 0

-42.8197 775.834 0
775.834 1767.49 0
0 0 0

374.217 -241.456 0
-241.456 172.531 0
0 0 0

-343.404 -1787.94 0
-1787.94 -733.501 0
0 0 0

387.887 -1658.25 0
-1658.25 -956.839 0
0 0 0

-830.332 -85.4934 0
-85.4934 -3237.33 0
0 0 0

-146.562 14.2873 0
14.2873 -5000.51 0
0 0 0

1564.61 240.094 0
240.094 270.438 0
0 0 0

2067.34 3404.68 0
3404.68 1575.96 0
0 0 0

1641.52 -200.231 0
-200.231 -3428.87 0
0 0 0

1414.31 1251.15 0
1251.15 -1951.44 0
0 0 0

TENSORS velocity_gradient double
31.0966 -3.89815 0
3.06121 -6.69628 0
0 0 0

24.9705 -1.21905 0
1.96484 -4.62012 0
0 0 0

9.12346 -7.49515 0
10.1944 -6.12481 0
0 0 0

5.30147 -7.18871 0
11.6586 -2.75314 0
0 0 0

12.578 1.7121 0
6.09938 -5.37517 0
0 0 0

2.63247 5.63138 0
9.01565 -3.87199 0
0 0 0

3.79486 -6.57733 0
11.1969 -2.70808 0
0 0 0

0.808945 2.0697 0
9.62173 -3.00239 0
0 0 0

-0.792934 5.1776 0
7.34944 0.709233 0
0 0 0

-2.2989 2.84796 0
5.10227 1.28326 0
0 0 0

-1.58996 2.88114 0
6.37541 -2.09723 0
0 0 0

-3.10747 -5.55457 0
4.61355 0.747182 0
0 0 0

0.220639 -8.93511 0
6.76 -0.986033 0
0 0 0

0.407104 -8.99175 0
8.24911 -1.17856 0
0 0 0

-2.33954 -8.18309 0
5.9618 0.619209 0
0 0 0

-1.67527 -10.5981 0
7.31362 1.03487 0
0 0 0

8.1994 -11.1403 0
10.6009 -4.52107 0
0 0 0

4.91847 -8.98398 0
11.67 -2.63336 0
0 0 0

0.608762 -11.8121 0
11.2942 -2.31739 0
0 0 0

2.61346 -10.1022 0
12.7849 -2.48916 0
0 0 0

2.80649 -8.59825 0
11.6391 -2.62771 0
0 0 0

1.49394 1.18995 0
12.209 -2.73913 0
0 0 0

3.09903 -10.0154 0
12.6054 -2.56248 0
0 0 0

1.41841 0.673319 0
12.3718 -1.62541 0
0 0 0

0.95321 1.37451 0
13.3747 -3.137 0
0 0 0

-0.751193 -7.19928 0
11.0056 2.47888 0
0 0 0

0.870063 0.841299 0
13.5539 -1.98753 0
0 0 0

0.128252 -7.94974 0
13.7891 2.28065 0
0 0 0

-2.05545 -7.21267 0
6.54577 2.26105 0
0 0 0

-1.7156 -13.1566 0
7.48126 1.54029 0
0 0 0

-0.74815 -7.66581 0
13.4396 2.3939 0
0 0 0

-1.41765 -13.8687 0
13.147 1.37328 0
0 0 0

1.16708 -9.01365 0
11.8321 0.1082 0
0 0 0

2.71391 -9.04079 0
13.0026 -1.84115 0
0 0 0

2.0394 -7.75537 0
10.4749 0.653508 0
0 0 0

2.32086 -8.10568 0
11.6577 -1.23434 0
0 0 0

3.82008 -8.68952 0
13.6958 -1.88316 0
0 0 0

2.72741 -0.650521 0
14.5372 -0.694866 0
0 0 0

3.34858 -5.72793 0
13.2808 -0.542344 0
0 0 0

2.39715 -2.34688 0
14.7011 0.14719 0
0 0 0

0.954062 -0.530626 0
15.4192 -0.815067 0
0 0 0

0.245252 -8.73039 0
14.9891 2.01213 0
0 0 0

0.78805 -4.59847 0
15.5148 0.798537 0
0 0 0

0.395748 -8.94266 0
15.8371 2.17186 0
0 0 0

-0.900178 -8.57401 0
13.4182 2.03294 0
0 0 0

-1.51566 -14.3579 0
13.0976 1.12705 0
0 0 0

0.332007 -10.3558 0
16.0041 1.6869 0
0 0 0

1.01508 -14.0279 0
15.64 0.728493 0
0 0 0

1.97431 -7.90436 0
10.7502 -0.78001 0
0 0 0

2.07336 -7.92687 0
11.1039 -0.860392 0
0 0 0

-1.35627 -7.67719 0
3.618 -0.685476 0
0 0 0

0.494148 -7.76199 0
6.61109 -0.649852 0
0 0 0

1.8999 -4.32813 0
11.5666 1.04482 0
0 0 0

0.875816 -3.68873 0
12.3825 0.986257 0
0 0 0

1.52704 -4.99769 0
11.157 1.99444 0
0 0 0

0.587553 -4.72513 0
12.6096 1.80272 0
0 0 0

0.185971 -7.7271 0
12.9168 1.91532 0
0 0 0

0.582333 -8.97233 0
14.1856 2.28649 0
0 0 0

0.277421 -8.17159 0
12.8355 1.61935 0
0 0 0

0.970357 -8.35386 0
12.2465 1.77429 0
0 0 0

0.400515 -11.6807 0
15.9785 0.889772 0
0 0 0

1.17924 -13.1415 0
15.5464 0.222809 0
0 0 0

1.45635 -12.8455 0
11.4666 -0.9732 0
0 0 0

1.39523 -12.8374 0
10.1797 -0.801608 0
0 0 0

SCALARS active double 1
LOOKUP_TABLE default
1
1
1
1
1
1
1
1
1
1
1
1
1
1
1
1
1
1
1
1
1
1
1
1
1
1
1
1
1
1
1
1
1
1
1
1
1
1
1
1
1
1
1
1
1
1
1
1
1
1
1
1
1
1
1
1
1
1
1
1
1
1
1
1
SCALARS extent double 1
LOOKUP_TABLE default
0.0125
0.0125
0.0125
0.0125
0.0125
0.0125
0.0125
0.0125
0.0125
0.0125
0.0125
0.0125
0.0125
0.0125
0.0125
0.0125
0.0125
0.0125
0.0125
0.0125
0.0125
0.0125
0.0125
0.0125
0.0125
0.0125
0.0125
0.0125
0.0125
0.0125
0.0125
0.0125
0.0125
0.0125
0.0125
0.0125
0.0125
0.0125
0.0125
0.0125
0.0125
0.0125
0.0125
0.0125
0.0125
0.0125
0.0125
0.0125
0.0125
0.0125
0.0125
0.0125
0.0125
0.0125
0.0125
0.0125
0.0125
0.0125
0.0125
0.0125
0.0125
0.0125
0.0125
0.0125
SCALARS pressure double 1
LOOKUP_TABLE default
34145.6
34895.4
-800.305
622.942
38119.1
15891.5
5148.62
2070.38
5133.7
-1144.04
570.245
-921.988
144.539
348.755
490.649
-1766.48
-728.39
-871.142
1560.52
-556.915
4912.84
3646.27
3188.72
-410.977
5755.56
1864.49
2060.6
-227.32
1208.92
-2041.98
-143.278
-1698.33
4733.44
3387.95
-685.598
895.808
5204.33
1309.23
2274.34
446.945
2699.76
-1370.78
2538.09
736.368
-1379.56
-1065.52
-1074.88
-1516.64
-770.569
396.54
-347.543
-2365.43
1666.26
-5.56383
-862.336
-273.374
538.453
284.476
2033.83
2573.54
-917.526
-1821.65
893.673
268.565
SCALARS density double 1
LOOKUP_TABLE default
1426.34
1437.51
991.711
1006.5
1486.52
1179.71
1055.01
1021.77
1054.84
988.173
1005.95
990.457
1001.5
1003.63
1005.12
981.796
992.453
990.981
1016.36
994.225
1052.42
1038.65
1033.72
995.735
1061.69
1019.58
1021.66
997.639
1012.65
978.987
998.511
982.492
1050.46
1035.86
992.895
1009.36
1055.62
1013.71
1023.94
1004.66
1028.48
985.845
1026.75
1007.69
985.755
988.98
988.884
984.351
992.018
1004.13
996.392
975.7
1017.48
999.942
991.072
997.161
1005.62
1002.96
1021.38
1027.13
990.503
981.233
1009.34
1002.8
