# vtk DataFile Version 3.0
Frame: 54, Time: 0.918
ASCII
DATASET UNSTRUCTURED_GRID
POINTS 64 double
0.459923 0.223739 0 
0.456103 0.200077 0 
0.432252 0.227471 0 
0.42937 0.202615 0 
0.45301 0.174118 0 
0.453928 0.150191 0 
0.426687 0.176491 0 
0.425711 0.151268 0 
0.449037 0.125214 0 
0.448475 0.0998007 0 
0.422949 0.126641 0 
0.421389 0.101339 0 
0.448852 0.0769346 0 
0.449374 0.0514397 0 
0.421415 0.0757233 0 
0.422128 0.049735 0 
0.404179 0.228233 0 
0.403168 0.203242 0 
0.380968 0.234182 0 
0.377521 0.208406 0 
0.402299 0.178838 0 
0.400057 0.15328 0 
0.377375 0.18223 0 
0.375511 0.155245 0 
0.396499 0.127363 0 
0.396837 0.102937 0 
0.371662 0.130284 0 
0.371533 0.104193 0 
0.398022 0.0779262 0 
0.398223 0.0512792 0 
0.372996 0.0786239 0 
0.372773 0.0542083 0 
0.355511 0.235729 0 
0.352883 0.208699 0 
0.328735 0.239301 0 
0.327617 0.210105 0 
0.351448 0.183475 0 
0.349828 0.157024 0 
0.326597 0.184094 0 
0.324337 0.157692 0 
0.346823 0.130658 0 
0.345922 0.10483 0 
0.322641 0.132399 0 
0.320948 0.106938 0 
0.347084 0.0783392 0 
0.346873 0.0519489 0 
0.322349 0.0802839 0 
0.322269 0.0539872 0 
0.305577 0.240136 0 
0.30371 0.210973 0 
0.279223 0.239249 0 
0.278427 0.212071 0 
0.300823 0.186166 0 
0.298269 0.160531 0 
0.274488 0.187892 0 
0.27359 0.162094 0 
0.297153 0.134077 0 
0.296777 0.107575 0 
0.273646 0.135219 0 
0.271212 0.109537 0 
0.29731 0.0820923 0 
0.297211 0.0556374 0 
0.270816 0.0826241 0 
0.271009 0.0581831 0 
CELLS 64 128
1 0
1 1
1 2
1 3
1 4
1 5
1 6
1 7
1 8
1 9
1 10
1 11
1 12
1 13
1 14
1 15
1 16
1 17
1 18
1 19
1 20
1 21
1 22
1 23
1 24
1 25
1 26
1 27
1 28
1 29
1 30
1 31
1 32
1 33
1 34
1 35
1 36
1 37
1 38
1 39
1 40
1 41
1 42
1 43
1 44
1 45
1 46
1 47
1 48
1 49
1 50
1 51
1 52
1 53
1 54
1 55
1 56
1 57
1 58
1 59
1 60
1 61
1 62
1 63
CELL_TYPES 64
1
1
1
1
1
1
1
1
1
1
1
1
1
1
1
1
1
1
1
1
1
1
1
1
1
1
1
1
1
1
1
1
1
1
1
1
1
1
1
1
1
1
1
1
1
1
1
1
1
1
1
1
1
1
1
1
1
1
1
1
1
1
1
1
POINT_DATA 64
VECTORS displacement double
-0.152577 -0.0887613 0 
-0.156397 -0.137423 0 
-0.205248 -0.0850291 0 
-0.20813 -0.134885 0 
-0.15949 -0.188382 0 
-0.158572 -0.237309 0 
-0.210813 -0.186009 0 
-0.211789 -0.236232 0 
-0.163463 -0.287286 0 
-0.164025 -0.337699 0 
-0.214551 -0.285859 0 
-0.216111 -0.336161 0 
-0.163648 -0.385565 0 
-0.163126 -0.43606 0 
-0.216085 -0.386777 0 
-0.215372 -0.437765 0 
-0.258321 -0.0842666 0 
-0.259332 -0.134258 0 
-0.306532 -0.0783178 0 
-0.309979 -0.129094 0 
-0.260201 -0.183662 0 
-0.262443 -0.23422 0 
-0.310125 -0.18027 0 
-0.311989 -0.232255 0 
-0.266001 -0.285137 0 
-0.265663 -0.334563 0 
-0.315838 -0.282216 0 
-0.315967 -0.333307 0 
-0.264478 -0.384574 0 
-0.264277 -0.436221 0 
-0.314504 -0.383876 0 
-0.314727 -0.433292 0 
-0.356989 -0.0767707 0 
-0.359617 -0.128801 0 
-0.408765 -0.073199 0 
-0.409883 -0.127395 0 
-0.361052 -0.179025 0 
-0.362672 -0.230476 0 
-0.410903 -0.178406 0 
-0.413163 -0.229808 0 
-0.365677 -0.281842 0 
-0.366578 -0.33267 0 
-0.414859 -0.280101 0 
-0.416552 -0.330562 0 
-0.365416 -0.384161 0 
-0.365627 -0.435551 0 
-0.415151 -0.382216 0 
-0.415231 -0.433513 0 
-0.456923 -0.0723635 0 
-0.45879 -0.126527 0 
-0.508277 -0.0732515 0 
-0.509073 -0.125429 0 
-0.461677 -0.176334 0 
-0.464231 -0.226969 0 
-0.513012 -0.174608 0 
-0.51391 -0.225406 0 
-0.465347 -0.278423 0 
-0.465723 -0.329925 0 
-0.513854 -0.277281 0 
-0.516288 -0.327963 0 
-0.46519 -0.380408 0 
-0.465289 -0.431863 0 
-0.516684 -0.379876 0 
-0.516491 -0.429317 0 
VECTORS velocity double
-0.180575 -0.6671 0 
-0.207558 -0.564532 0 
0.00367671 -0.553984 0 
-0.473176 -0.351829 0 
-0.571939 -0.824264 0 
-0.319818 -0.329355 0 
-0.472733 -0.609691 0 
-0.521035 -0.372577 0 
-0.813661 -0.617183 0 
-0.0395704 -0.647412 0 
-0.444234 -0.196243 0 
-0.25319 -0.286765 0 
-0.580783 -0.566396 0 
-0.586869 -0.836144 0 
-0.406566 -0.309291 0 
-0.843089 -0.569957 0 
-0.0720531 -0.487636 0 
-0.490911 -0.268882 0 
0.11204 0.114314 0 
-0.658386 -0.0386672 0 
-0.0675761 -0.33356 0 
-0.124571 -0.514011 0 
-0.57628 -0.533334 0 
-0.590348 -0.569582 0 
-0.560853 -0.22116 0 
-0.263899 -0.714037 0 
-0.807664 -0.151845 0 
-0.487233 -0.706818 0 
-0.178034 -0.738149 0 
-0.296748 -0.632909 0 
-0.616563 -0.527088 0 
-0.628131 -0.479472 0 
0.022051 -0.605988 0 
0.00306426 0.0147497 0 
-0.344265 0.209957 0 
-0.089555 -0.287113 0 
-0.305906 -0.562582 0 
0.067139 -0.745616 0 
-0.518916 -0.00299211 0 
-0.259407 -0.366739 0 
-0.15909 -0.0174601 0 
0.0640831 -0.640366 0 
-0.321108 0.17607 0 
-0.424464 -0.246131 0 
-0.402241 -0.484985 0 
-0.321628 -0.871016 0 
-0.75728 -0.579027 0 
-0.51619 -0.522556 0 
0.0835749 -0.387806 0 
-0.180103 -0.708701 0 
-0.0889978 0.218611 0 
0.388555 0.097914 0 
-0.317801 -0.125341 0 
-0.178126 -0.638644 0 
-0.233473 0.244783 0 
-0.711039 0.154381 0 
-0.316734 -0.569815 0 
-0.14363 -0.375947 0 
0.0780685 0.126786 0 
-0.0883747 0.050968 0 
-0.166272 -0.249211 0 
-0.503962 0.123634 0 
-0.903798 -0.029514 0 
-0.0933498 -0.35792 0 
SCALARS mass double 1
LOOKUP_TABLE default
0.625
0.625
0.625
0.625
0.625
0.625
0.625
0.625
0.625
0.625
0.625
0.625
0.625
0.625
0.625
0.625
0.625
0.625
0.625
0.625
0.625
0.625
0.625
0.625
0.625
0.625
0.625
0.625
0.625
0.625
0.625
0.625
0.625
0.625
0.625
0.625
0.625
0.625
0.625
0.625
0.625
0.625
0.625
0.625
0.625
0.625
0.625
0.625
0.625
0.625
0.625
0.625
0.625
0.625
0.625
0.625
0.625
0.625
0.625
0.625
0.625
0.625
0.625
0.625
SCALARS volume double 1
LOOKUP_TABLE default
0.000615947
0.000627152
0.000619444
0.000627571
0.000627833
0.000618304
0.000616785
0.000596454
0.000602238
0.000607405
0.000606135
0.000613929
0.000610262
0.000639121
0.000661576
0.000582228
0.000598814
0.000659383
0.000607146
0.00060807
0.000573618
0.000636243
0.000654161
0.000611795
0.00061556
0.000615402
0.000612598
0.000646254
0.000589898
0.000586876
0.000605325
0.000642306
0.000622068
0.000615035
0.000634206
0.000623438
0.000664488
0.000613055
0.000617642
0.000619262
0.000644385
0.000646374
0.000608367
0.000616052
0.000630351
0.000621713
0.000631403
0.00063659
0.000620072
0.000610616
0.000604236
0.000608786
0.000657802
0.000664765
0.000619062
0.000647584
0.00063738
0.000627821
0.000599004
0.000624949
0.000611381
0.000632822
0.000643869
0.000605677
VECTORS momentum double
-0.112859 -0.416938 0 
-0.129724 -0.352832 0 
0.00229795 -0.34624 0 
-0.295735 -0.219893 0 
-0.357462 -0.515165 0 
-0.199886 -0.205847 0 
-0.295458 -0.381057 0 
-0.325647 -0.232861 0 
-0.508538 -0.385739 0 
-0.0247315 -0.404633 0 
-0.277646 -0.122652 0 
-0.158244 -0.179228 0 
-0.36299 -0.353998 0 
-0.366793 -0.52259 0 
-0.254104 -0.193307 0 
-0.52693 -0.356223 0 
-0.0450332 -0.304772 0 
-0.306819 -0.168051 0 
0.0700249 0.0714462 0 
-0.411491 -0.024167 0 
-0.0422351 -0.208475 0 
-0.0778571 -0.321257 0 
-0.360175 -0.333334 0 
-0.368967 -0.355989 0 
-0.350533 -0.138225 0 
-0.164937 -0.446273 0 
-0.50479 -0.094903 0 
-0.304521 -0.441761 0 
-0.111271 -0.461343 0 
-0.185467 -0.395568 0 
-0.385352 -0.32943 0 
-0.392582 -0.29967 0 
0.0137819 -0.378742 0 
0.00191516 0.00921853 0 
-0.215166 0.131223 0 
-0.0559719 -0.179446 0 
-0.191191 -0.351614 0 
0.0419619 -0.46601 0 
-0.324322 -0.00187007 0 
-0.162129 -0.229212 0 
-0.0994314 -0.0109126 0 
0.040052 -0.400229 0 
-0.200692 0.110044 0 
-0.26529 -0.153832 0 
-0.251401 -0.303115 0 
-0.201018 -0.544385 0 
-0.4733 -0.361892 0 
-0.322619 -0.326597 0 
0.0522343 -0.242379 0 
-0.112565 -0.442938 0 
-0.0556237 0.136632 0 
0.242847 0.0611963 0 
-0.198626 -0.0783381 0 
-0.111329 -0.399152 0 
-0.145921 0.152989 0 
-0.444399 0.0964881 0 
-0.197959 -0.356134 0 
-0.0897685 -0.234967 0 
0.0487928 0.0792411 0 
-0.0552342 0.031855 0 
-0.10392 -0.155757 0 
-0.314976 0.0772715 0 
-0.564874 -0.0184463 0 
-0.0583436 -0.2237 0 
VECTORS body_force double
0 -9.81 0 
0 -9.81 0 
0 -9.81 0 
0 -9.81 0 
0 -9.81 0 
0 -9.81 0 
0 -9.81 0 
0 -9.81 0 
0 -9.81 0 
0 -9.81 0 
0 -9.81 0 
0 -9.81 0 
0 -9.81 0 
0 -9.81 0 
0 -9.81 0 
0 -9.81 0 
0 -9.81 0 
0 -9.81 0 
0 -9.81 0 
0 -9.81 0 
0 -9.81 0 
0 -9.81 0 
0 -9.81 0 
0 -9.81 0 
0 -9.81 0 
0 -9.81 0 
0 -9.81 0 
0 -9.81 0 
0 -9.81 0 
0 -9.81 0 
0 -9.81 0 
0 -9.81 0 
0 -9.81 0 
0 -9.81 0 
0 -9.81 0 
0 -9.81 0 
0 -9.81 0 
0 -9.81 0 
0 -9.81 0 
0 -9.81 0 
0 -9.81 0 
0 -9.81 0 
0 -9.81 0 
0 -9.81 0 
0 -9.81 0 
0 -9.81 0 
0 -9.81 0 
0 -9.81 0 
0 -9.81 0 
0 -9.81 0 
0 -9.81 0 
0 -9.81 0 
0 -9.81 0 
0 -9.81 0 
0 -9.81 0 
0 -9.81 0 
0 -9.81 0 
0 -9.81 0 
0 -9.81 0 
0 -9.81 0 
0 -9.81 0 
0 -9.81 0 
0 -9.81 0 
0 -9.81 0 
TENSORS cauchy_stress double
-389.439 1837.96 0
1837.96 -2416.35 0
0 0 0

282.273 -825.093 0
-825.093 378.887 0
0 0 0

-585.694 287.495 0
287.495 -1131.55 0
0 0 0

576.506 -3082.69 0
-3082.69 212.988 0
0 0 0

93.6478 1131.46 0
1131.46 776.204 0
0 0 0

1220.69 473.713 0
473.713 -3292.16 0
0 0 0

-604.735 1740.57 0
1740.57 -1939.74 0
0 0 0

-2083.31 215.257 0
215.257 -6907.1 0
0 0 0

-4331.51 1535.25 0
1535.25 -2802.75 0
0 0 0

949.59 -1008.33 0
-1008.33 -6441.04 0
0 0 0

-7.85385 2368.2 0
2368.2 -5886.17 0
0 0 0

-1027.37 -2888.76 0
-2888.76 -2409.56 0
0 0 0

1623.45 -2041.89 0
-2041.89 -6212.43 0
0 0 0

-1092.58 473.709 0
473.709 5389.2 0
0 0 0

5429.87 -358.021 0
-358.021 5507.18 0
0 0 0

-532.825 4258.9 0
4258.9 -13099.8 0
0 0 0

-1301.75 4642.71 0
4642.71 -6929.27 0
0 0 0

2269.18 920.907 0
920.907 8029.36 0
0 0 0

-3554.26 1874.66 0
1874.66 -2019.37 0
0 0 0

-1974.65 116.026 0
116.026 -3306.4 0
0 0 0

-5288.44 -552.605 0
-552.605 -11209.4 0
0 0 0

2696.9 2336.97 0
2336.97 731.863 0
0 0 0

1454.11 -1217.9 0
-1217.9 7315.57 0
0 0 0

-1671.39 3582.07 0
3582.07 -2435.14 0
0 0 0

-62.7403 1211.86 0
1211.86 -2863.95 0
0 0 0

472.919 -2599.53 0
-2599.53 -3448.92 0
0 0 0

-2924.11 -2150.15 0
-2150.15 -930.132 0
0 0 0

1715.63 1902.66 0
1902.66 4715.22 0
0 0 0

-6104.06 -4079.23 0
-4079.23 -5011.56 0
0 0 0

-7751.68 -5637.3 0
-5637.3 -4351.85 0
0 0 0

-2048.76 -2291.51 0
-2291.51 -4102.37 0
0 0 0

2904.67 -1559.37 0
-1559.37 2347.74 0
0 0 0

-2419.6 5161.38 0
5161.38 1515.42 0
0 0 0

-1310.69 3064.78 0
3064.78 -1780.29 0
0 0 0

-2558.13 -404.001 0
-404.001 5369.95 0
0 0 0

-3677.38 362.248 0
362.248 3196.04 0
0 0 0

6512.5 1107.15 0
1107.15 5269.32 0
0 0 0

404.814 5836.5 0
5836.5 -4115.88 0
0 0 0

-1535.48 727.335 0
727.335 -741.874 0
0 0 0

239.775 -464.224 0
-464.224 -2013.58 0
0 0 0

1835.63 -1445.11 0
-1445.11 4038.41 0
0 0 0

5301.66 3360.28 0
3360.28 1165.07 0
0 0 0

-1597.44 565.772 0
565.772 -3589.67 0
0 0 0

-4082.2 -4811.76 0
-4811.76 1309.16 0
0 0 0

-1015.61 -1398.88 0
-1398.88 2654.91 0
0 0 0

-3824.56 1652.15 0
1652.15 2810.51 0
0 0 0

-360.193 -5401.48 0
-5401.48 2320.46 0
0 0 0

235.357 814.93 0
814.93 3298.23 0
0 0 0

-4657.45 2697.06 0
2697.06 3134.99 0
0 0 0

-3947.34 3106.63 0
3106.63 -530.253 0
0 0 0

-2276.3 -3022.07 0
-3022.07 -4221.02 0
0 0 0

-6156.27 -757.071 0
-757.071 1101.34 0
0 0 0

10012 2690.98 0
2690.98 -174.996 0
0 0 0

5397.36 -2884.65 0
-2884.65 6464.54 0
0 0 0

2635.64 4738.47 0
4738.47 -4471.56 0
0 0 0

1386.77 -4666.77 0
-4666.77 5439.66 0
0 0 0

-1390.69 3975.27 0
3975.27 5162.79 0
0 0 0

365.877 -6.85169 0
-6.85169 500.282 0
0 0 0

-8032.25 1441.84 0
1441.84 -137.603 0
0 0 0

-1374.45 -2728.36 0
-2728.36 1358.84 0
0 0 0

-2091.04 -762.074 0
-762.074 -2145.69 0
0 0 0

1783.12 852.958 0
852.958 608.645 0
0 0 0

3807.3 -2811.13 0
-2811.13 1912.76 0
0 0 0

-2131.07 1917.35 0
1917.35 -3908.23 0
0 0 0

TENSORS velocity_gradient double
-0.249739 3.42655 0
-3.34457 -0.166895 0
0 0 0

0.942443 3.43733 0
-3.35671 -0.95219 0
0 0 0

-0.255215 4.36788 0
-5.1493 0.377048 0
0 0 0

0.135856 3.92708 0
-4.30585 0.210991 0
0 0 0

0.334348 3.09229 0
-3.09607 -1.81164 0
0 0 0

-0.112488 0.903399 0
-2.72715 -0.630607 0
0 0 0

-0.329044 2.4107 0
-2.73731 -0.364599 0
0 0 0

-0.89723 0.95952 0
-1.19215 0.31782 0
0 0 0

-0.295154 -1.78425 0
-1.25098 1.02888 0
0 0 0

-0.131153 1.10165 0
-0.680449 2.03659 0
0 0 0

-0.80553 -1.51762 0
-0.687513 1.43991 0
0 0 0

-0.667951 0.228579 0
-0.507291 1.68224 0
0 0 0

-0.433545 4.30314 0
-1.18364 3.14786 0
0 0 0

-0.730655 -1.10143 0
-1.76073 -2.41185 0
0 0 0

-1.40447 3.41337 0
-1.33637 2.0972 0
0 0 0

-2.09276 -3.33401 0
-2.13022 -4.72068 0
0 0 0

-0.283989 4.8199 0
-4.63144 1.2404 0
0 0 0

-0.268739 4.17139 0
-3.7079 1.22777 0
0 0 0

-0.0586793 3.93412 0
-1.60114 1.44556 0
0 0 0

-1.47189 3.75023 0
-1.54859 1.4524 0
0 0 0

-0.821454 1.80914 0
-2.41075 1.15759 0
0 0 0

-1.58994 1.16326 0
-1.08344 1.33206 0
0 0 0

-2.15344 1.45465 0
-1.27234 1.75671 0
0 0 0

-2.4494 1.35763 0
-0.878672 1.7758 0
0 0 0

-1.27019 -1.07828 0
-0.82886 1.67724 0
0 0 0

-0.370294 -0.228332 0
-0.781576 1.63316 0
0 0 0

-1.56845 0.103192 0
-0.862473 1.60735 0
0 0 0

-0.299329 0.451943 0
-0.921212 1.72172 0
0 0 0

-0.434129 2.73469 0
-0.456015 1.48302 0
0 0 0

-0.68474 -1.73456 0
-0.182799 -3.08629 0
0 0 0

0.0968601 2.7896 0
-0.0130514 2.43808 0
0 0 0

0.237899 1.30057 0
1.06171 0.759902 0
0 0 0

-0.0375788 2.54998 0
-1.59053 1.49524 0
0 0 0

-1.47282 2.46911 0
-1.52889 1.49034 0
0 0 0

-1.26631 2.05147 0
-1.28988 1.38521 0
0 0 0

-1.50601 2.04275 0
-1.46074 1.379 0
0 0 0

-1.81623 1.22497 0
-1.52465 2.05034 0
0 0 0

-1.5883 1.23238 0
-1.73793 2.04183 0
0 0 0

-1.26195 1.61776 0
-1.92088 1.57553 0
0 0 0

-0.707886 1.66439 0
-2.59409 1.51887 0
0 0 0

-1.00947 1.05915 0
-2.58945 1.42603 0
0 0 0

-0.967434 1.2257 0
-3.2626 1.54758 0
0 0 0

-0.772793 0.841022 0
-3.19407 0.903807 0
0 0 0

-1.11525 0.818501 0
-3.77713 0.865462 0
0 0 0

-0.697493 2.95802 0
-3.87769 3.10583 0
0 0 0

-0.505999 -0.906594 0
-4.74333 -1.36012 0
0 0 0

-1.05311 3.15879 0
-5.4003 1.46892 0
0 0 0

-0.828727 1.2606 0
-7.1644 0.0104466 0
0 0 0

-1.25346 1.85942 0
-1.48398 1.24435 0
0 0 0

-1.50047 1.84011 0
-2.3708 1.21819 0
0 0 0

-1.13862 1.54385 0
-5.58214 0.740488 0
0 0 0

-1.49316 1.53399 0
-6.2058 0.723146 0
0 0 0

-1.18197 2.22776 0
-3.6791 1.0401 0
0 0 0

-0.176189 2.31246 0
-4.44771 1.03528 0
0 0 0

-1.0863 3.36869 0
-6.22243 1.44013 0
0 0 0

0.120184 3.40669 0
-5.66402 1.45772 0
0 0 0

0.394262 0.60849 0
-4.44695 0.536916 0
0 0 0

0.572712 0.608166 0
-4.14719 0.537546 0
0 0 0

0.860907 0.835932 0
-5.01268 1.06665 0
0 0 0

1.15993 0.864005 0
-4.33464 1.1303 0
0 0 0

-0.41733 2.99182 0
-3.51207 0.237859 0
0 0 0

-1.76801 2.64496 0
-2.71028 0.0842165 0
0 0 0

-0.0852658 1.07134 0
-2.74422 1.99489 0
0 0 0

-2.01006 1.08863 0
-0.85148 1.97789 0
0 0 0

SCALARS active double 1
LOOKUP_TABLE default
1
1
1
1
1
1
1
1
1
1
1
1
1
1
1
1
1
1
1
1
1
1
1
1
1
1
1
1
1
1
1
1
1
1
1
1
1
1
1
1
1
1
1
1
1
1
1
1
1
1
1
1
1
1
1
1
1
1
1
1
1
1
1
1
SCALARS extent double 1
LOOKUP_TABLE default
0.0125
0.0125
0.0125
0.0125
0.0125
0.0125
0.0125
0.0125
0.0125
0.0125
0.0125
0.0125
0.0125
0.0125
0.0125
0.0125
0.0125
0.0125
0.0125
0.0125
0.0125
0.0125
0.0125
0.0125
0.0125
0.0125
0.0125
0.0125
0.0125
0.0125
0.0125
0.0125
0.0125
0.0125
0.0125
0.0125
0.0125
0.0125
0.0125
0.0125
0.0125
0.0125
0.0125
0.0125
0.0125
0.0125
0.0125
0.0125
0.0125
0.0125
0.0125
0.0125
0.0125
0.0125
0.0125
0.0125
0.0125
0.0125
0.0125
0.0125
0.0125
0.0125
0.0125
0.0125
SCALARS pressure double 1
LOOKUP_TABLE default
1402.9
-330.58
858.624
-394.747
-434.926
1035.74
1272.24
4495.2
3567.13
2745.72
2947.01
1718.47
2294.49
-2148.31
-5468.52
6816.32
4115.51
-5149.27
2786.82
2640.52
8248.9
-1714.38
-4384.84
2053.26
1463.35
1488
1927.12
-3215.43
5557.81
6051.77
3075.57
-2626.21
452.09
1545.49
-1405.91
240.666
-5890.91
1855.54
1138.68
886.904
-2937.02
-3233.36
2593.55
1386.52
-819.652
507.021
-980.133
-1766.8
761.231
2238.8
3248.66
2527.47
-4918.5
-5930.95
917.957
-3413.21
-1886.05
-433.079
4084.93
7.80487
2118.36
-1195.88
-2860.03
3019.65
SCALARS density double 1
LOOKUP_TABLE default
1014.7
996.568
1008.97
995.903
995.487
1010.83
1013.32
1047.86
1037.79
1028.97
1031.12
1018.03
1024.15
977.905
944.714
1073.46
1043.73
947.856
1029.41
1027.84
1089.58
982.328
955.422
1021.58
1015.34
1015.6
1020.24
967.113
1059.5
1064.96
1032.5
973.057
1004.71
1016.2
985.485
1002.51
940.574
1019.48
1011.91
1009.27
969.917
966.932
1027.34
1014.52
991.512
1005.29
989.858
981.793
1007.95
1023.56
1034.36
1026.63
950.134
940.182
1009.59
965.125
980.576
995.506
1043.4
1000.08
1022.28
987.64
970.694
1031.9
