# vtk DataFile Version 3.0
Frame: 7, Time: 0.119
ASCII
DATASET UNSTRUCTURED_GRID
POINTS 64 double
0.338903 0.0618298 0 
0.324884 0.0823543 0 
0.359692 0.0757411 0 
0.345211 0.0965906 0 
0.310941 0.103304 0 
0.297601 0.12506 0 
0.331319 0.11757 0 
0.318268 0.139154 0 
0.284578 0.146592 0 
0.271582 0.16774 0 
0.305643 0.1607 0 
0.292871 0.181849 0 
0.25844 0.188557 0 
0.245883 0.210527 0 
0.279596 0.202155 0 
0.266856 0.223202 0 
0.379824 0.0899861 0 
0.365343 0.110854 0 
0.399853 0.103153 0 
0.385434 0.124447 0 
0.351905 0.132023 0 
0.339228 0.15308 0 
0.37227 0.145899 0 
0.359636 0.167188 0 
0.327187 0.174259 0 
0.314781 0.195502 0 
0.348096 0.188592 0 
0.336259 0.209695 0 
0.301435 0.216057 0 
0.287955 0.23671 0 
0.323319 0.229986 0 
0.309582 0.250714 0 
0.419721 0.116084 0 
0.405626 0.137582 0 
0.44039 0.128953 0 
0.426481 0.15058 0 
0.393121 0.159363 0 
0.381041 0.18129 0 
0.414468 0.171921 0 
0.40233 0.193802 0 
0.369286 0.20281 0 
0.356856 0.224509 0 
0.390141 0.215747 0 
0.377343 0.238311 0 
0.343875 0.245436 0 
0.330585 0.265773 0 
0.363209 0.260568 0 
0.350348 0.281077 0 
0.4613 0.141373 0 
0.447273 0.162505 0 
0.482352 0.154043 0 
0.468768 0.175128 0 
0.435866 0.1844 0 
0.422761 0.206554 0 
0.458114 0.197604 0 
0.444592 0.218308 0 
0.410304 0.227965 0 
0.397242 0.250386 0 
0.432092 0.239939 0 
0.419803 0.261993 0 
0.384011 0.273475 0 
0.372724 0.295243 0 
0.409023 0.282819 0 
0.397622 0.304754 0 
CELLS 64 128
1 0
1 1
1 2
1 3
1 4
1 5
1 6
1 7
1 8
1 9
1 10
1 11
1 12
1 13
1 14
1 15
1 16
1 17
1 18
1 19
1 20
1 21
1 22
1 23
1 24
1 25
1 26
1 27
1 28
1 29
1 30
1 31
1 32
1 33
1 34
1 35
1 36
1 37
1 38
1 39
1 40
1 41
1 42
1 43
1 44
1 45
1 46
1 47
1 48
1 49
1 50
1 51
1 52
1 53
1 54
1 55
1 56
1 57
1 58
1 59
1 60
1 61
1 62
1 63
CELL_TYPES 64
1
1
1
1
1
1
1
1
1
1
1
1
1
1
1
1
1
1
1
1
1
1
1
1
1
1
1
1
1
1
1
1
1
1
1
1
1
1
1
1
1
1
1
1
1
1
1
1
1
1
1
1
1
1
1
1
1
1
1
1
1
1
1
1
POINT_DATA 64
VECTORS displacement double
0.126403 -0.15067 0 
0.112384 -0.155146 0 
0.122192 -0.136759 0 
0.107711 -0.140909 0 
0.0984413 -0.159196 0 
0.0851012 -0.16244 0 
0.0938191 -0.14493 0 
0.0807676 -0.148346 0 
0.0720785 -0.165908 0 
0.059082 -0.16976 0 
0.0681431 -0.1518 0 
0.0553708 -0.155651 0 
0.04594 -0.173943 0 
0.033383 -0.176973 0 
0.0420962 -0.160345 0 
0.0293557 -0.164298 0 
0.117324 -0.122514 0 
0.102843 -0.126646 0 
0.112353 -0.109347 0 
0.0979338 -0.113053 0 
0.089405 -0.130477 0 
0.0767279 -0.13442 0 
0.0847702 -0.116601 0 
0.0721356 -0.120312 0 
0.0646869 -0.138241 0 
0.0522805 -0.141998 0 
0.0605959 -0.123908 0 
0.0487586 -0.127805 0 
0.0389345 -0.146443 0 
0.0254546 -0.15079 0 
0.0358188 -0.132514 0 
0.0220822 -0.136786 0 
0.107221 -0.096416 0 
0.0931258 -0.0999182 0 
0.10289 -0.0835465 0 
0.0889814 -0.0869198 0 
0.0806214 -0.103137 0 
0.0685408 -0.10621 0 
0.0769675 -0.0905792 0 
0.0648297 -0.0936982 0 
0.0567859 -0.10969 0 
0.0443555 -0.112991 0 
0.0526411 -0.0967529 0 
0.0398432 -0.0991892 0 
0.0313745 -0.117064 0 
0.0180848 -0.121727 0 
0.025709 -0.101932 0 
0.0128478 -0.106423 0 
0.0988 -0.0711271 0 
0.0847728 -0.0749946 0 
0.0948516 -0.0584569 0 
0.0812681 -0.0623722 0 
0.0733659 -0.0780996 0 
0.0602608 -0.0809458 0 
0.0706135 -0.0648956 0 
0.0570918 -0.0691921 0 
0.0478044 -0.0845353 0 
0.0347419 -0.0871139 0 
0.0445923 -0.0725607 0 
0.0323029 -0.0755067 0 
0.0215107 -0.0890255 0 
0.0102241 -0.0922567 0 
0.0215228 -0.0796811 0 
0.0101217 -0.0827462 0 
VECTORS velocity double
0.000571429 -2.26934 0 
-0.463805 -2.7759 0 
-0.239136 -1.44103 0 
-0.97173 -1.93209 0 
-0.295363 -2.64158 0 
-0.367232 -2.76695 0 
-0.468464 -2.07518 0 
-0.416919 -2.31209 0 
-0.573999 -3.11819 0 
-0.616704 -3.33605 0 
-0.863949 -2.44661 0 
-0.867308 -2.35619 0 
-0.532986 -3.34041 0 
-1.12002 -3.30984 0 
-0.550345 -2.25135 0 
-1.12531 -2.59813 0 
-0.172955 -1.71829 0 
-0.814555 -2.0251 0 
-0.224678 -1.72384 0 
-0.738073 -2.08371 0 
-0.366219 -1.9556 0 
-0.430782 -2.0268 0 
-0.538248 -2.00942 0 
-0.763916 -2.01235 0 
-1.02866 -2.24617 0 
-1.40354 -2.46317 0 
-1.2679 -2.07266 0 
-1.72739 -2.48635 0 
-1.14568 -2.43752 0 
-1.60307 -2.68635 0 
-1.54601 -2.74363 0 
-2.06573 -2.74855 0 
-0.236428 -1.34032 0 
-0.816784 -1.77415 0 
-0.327619 -1.24152 0 
-0.951187 -1.42706 0 
-0.788647 -1.82289 0 
-1.00142 -1.95064 0 
-0.803141 -1.36668 0 
-0.968372 -1.59359 0 
-1.13868 -2.17736 0 
-1.19464 -2.42204 0 
-1.15373 -2.2302 0 
-0.952464 -2.22791 0 
-1.08504 -2.36306 0 
-2.03953 -2.30445 0 
-1.00209 -1.75661 0 
-2.27992 -2.18359 0 
-0.190458 -1.32675 0 
-0.908892 -1.57868 0 
-0.263302 -0.486971 0 
-0.907168 -0.834983 0 
-0.710886 -1.73651 0 
-0.741612 -1.8513 0 
-0.965535 -1.17163 0 
-0.898202 -1.60383 0 
-1.26675 -2.11136 0 
-1.8998 -2.02659 0 
-1.24844 -1.45566 0 
-1.94032 -1.34673 0 
-2.45644 -1.61973 0 
-3.75878 -2.67478 0 
-1.88828 -1.08979 0 
-3.37232 -1.43192 0 
SCALARS mass double 1
LOOKUP_TABLE default
0.625
0.625
0.625
0.625
0.625
0.625
0.625
0.625
0.625
0.625
0.625
0.625
0.625
0.625
0.625
0.625
0.625
0.625
0.625
0.625
0.625
0.625
0.625
0.625
0.625
0.625
0.625
0.625
0.625
0.625
0.625
0.625
0.625
0.625
0.625
0.625
0.625
0.625
0.625
0.625
0.625
0.625
0.625
0.625
0.625
0.625
0.625
0.625
0.625
0.625
0.625
0.625
0.625
0.625
0.625
0.625
0.625
0.625
0.625
0.625
0.625
0.625
0.625
0.625
SCALARS volume double 1
LOOKUP_TABLE default
0.000621497
0.000623635
0.000622628
0.000621227
0.00062682
0.000628294
0.000622962
0.000624244
0.000633961
0.000616604
0.000624834
0.000622331
0.000618676
0.000633784
0.00061727
0.000604764
0.000614546
0.000618244
0.000594758
0.000620172
0.00060664
0.000610403
0.000614889
0.000612912
0.000622639
0.000627045
0.000608576
0.000607881
0.000639743
0.000629369
0.000636555
0.000658632
0.000605155
0.00063269
0.0006203
0.000605489
0.000607736
0.000636822
0.000602672
0.000597336
0.000644282
0.000622998
0.000590033
0.00062327
0.00061664
0.000638392
0.000610645
0.000588969
0.000629413
0.000599372
0.000613304
0.000612643
0.000634612
0.000614539
0.000626395
0.000607045
0.000629695
0.000666189
0.000643778
0.000612609
0.000636701
0.000655494
0.00063196
0.000633004
VECTORS momentum double
0.000357143 -1.41834 0 
-0.289878 -1.73493 0 
-0.14946 -0.900644 0 
-0.607331 -1.20755 0 
-0.184602 -1.65099 0 
-0.22952 -1.72934 0 
-0.29279 -1.29699 0 
-0.260574 -1.44506 0 
-0.358749 -1.94887 0 
-0.38544 -2.08503 0 
-0.539968 -1.52913 0 
-0.542068 -1.47262 0 
-0.333116 -2.08775 0 
-0.70001 -2.06865 0 
-0.343965 -1.4071 0 
-0.703321 -1.62383 0 
-0.108097 -1.07393 0 
-0.509097 -1.26569 0 
-0.140424 -1.0774 0 
-0.461296 -1.30232 0 
-0.228887 -1.22225 0 
-0.269239 -1.26675 0 
-0.336405 -1.25589 0 
-0.477447 -1.25772 0 
-0.642912 -1.40386 0 
-0.877213 -1.53948 0 
-0.792436 -1.29541 0 
-1.07962 -1.55397 0 
-0.716048 -1.52345 0 
-1.00192 -1.67897 0 
-0.966254 -1.71477 0 
-1.29108 -1.71785 0 
-0.147768 -0.837699 0 
-0.51049 -1.10884 0 
-0.204762 -0.775952 0 
-0.594492 -0.891911 0 
-0.492904 -1.13931 0 
-0.625885 -1.21915 0 
-0.501963 -0.854177 0 
-0.605232 -0.995994 0 
-0.711677 -1.36085 0 
-0.746651 -1.51378 0 
-0.721081 -1.39388 0 
-0.59529 -1.39244 0 
-0.678152 -1.47691 0 
-1.2747 -1.44028 0 
-0.626306 -1.09788 0 
-1.42495 -1.36475 0 
-0.119036 -0.829217 0 
-0.568058 -0.986675 0 
-0.164564 -0.304357 0 
-0.56698 -0.521864 0 
-0.444304 -1.08532 0 
-0.463508 -1.15707 0 
-0.603459 -0.732269 0 
-0.561376 -1.00239 0 
-0.79172 -1.3196 0 
-1.18737 -1.26662 0 
-0.780278 -0.909788 0 
-1.2127 -0.841708 0 
-1.53527 -1.01233 0 
-2.34924 -1.67174 0 
-1.18017 -0.681117 0 
-2.1077 -0.89495 0 
VECTORS body_force double
0 -9.81 0 
0 -9.81 0 
0 -9.81 0 
0 -9.81 0 
0 -9.81 0 
0 -9.81 0 
0 -9.81 0 
0 -9.81 0 
0 -9.81 0 
0 -9.81 0 
0 -9.81 0 
0 -9.81 0 
0 -9.81 0 
0 -9.81 0 
0 -9.81 0 
0 -9.81 0 
0 -9.81 0 
0 -9.81 0 
0 -9.81 0 
0 -9.81 0 
0 -9.81 0 
0 -9.81 0 
0 -9.81 0 
0 -9.81 0 
0 -9.81 0 
0 -9.81 0 
0 -9.81 0 
0 -9.81 0 
0 -9.81 0 
0 -9.81 0 
0 -9.81 0 
0 -9.81 0 
0 -9.81 0 
0 -9.81 0 
0 -9.81 0 
0 -9.81 0 
0 -9.81 0 
0 -9.81 0 
0 -9.81 0 
0 -9.81 0 
0 -9.81 0 
0 -9.81 0 
0 -9.81 0 
0 -9.81 0 
0 -9.81 0 
0 -9.81 0 
0 -9.81 0 
0 -9.81 0 
0 -9.81 0 
0 -9.81 0 
0 -9.81 0 
0 -9.81 0 
0 -9.81 0 
0 -9.81 0 
0 -9.81 0 
0 -9.81 0 
0 -9.81 0 
0 -9.81 0 
0 -9.81 0 
0 -9.81 0 
0 -9.81 0 
0 -9.81 0 
0 -9.81 0 
0 -9.81 0 
TENSORS cauchy_stress double
-546.352 197.611 0
197.611 -534.525 0
0 0 0

161.509 -329.883 0
-329.883 -582.047 0
0 0 0

-2434.86 -202.96 0
-202.96 1703.65 0
0 0 0

-1976.94 -116.539 0
-116.539 812.493 0
0 0 0

-2348.35 563.44 0
563.44 2907.55 0
0 0 0

-1246.6 466.947 0
466.947 2257.6 0
0 0 0

-2497.72 428.712 0
428.712 1869.49 0
0 0 0

-1645.41 531.807 0
531.807 1412.79 0
0 0 0

1419.09 900.31 0
900.31 1318.54 0
0 0 0

-220.534 983.517 0
983.517 -2380.4 0
0 0 0

-1910.78 1897.91 0
1897.91 1859.79 0
0 0 0

-1006.03 2745.44 0
2745.44 183.188 0
0 0 0

23.5931 -594.807 0
-594.807 -1979.25 0
0 0 0

836.873 -494.445 0
-494.445 1847.14 0
0 0 0

-612.749 1493.37 0
1493.37 -1780.42 0
0 0 0

-5707.56 745.374 0
745.374 -622.071 0
0 0 0

-2421.77 -857.445 0
-857.445 -822.144 0
0 0 0

-1182.25 -1735.02 0
-1735.02 -907.954 0
0 0 0

-5790.47 -3405.05 0
-3405.05 -3747.49 0
0 0 0

-1661.44 -2183.97 0
-2183.97 170.292 0
0 0 0

-5733.62 1532.76 0
1532.76 -0.316403 0
0 0 0

-4205.62 2299.07 0
2299.07 -338.932 0
0 0 0

-3872.91 1742.67 0
1742.67 736.469 0
0 0 0

-4156.94 2122.44 0
2122.44 401.202 0
0 0 0

-1714.98 2704.25 0
2704.25 987.145 0
0 0 0

1278.25 1550 0
1550 -649.932 0
0 0 0

-5839.3 3568.47 0
3568.47 718.078 0
0 0 0

-4728.39 4142.98 0
4142.98 -612.571 0
0 0 0

5314.25 750.713 0
750.713 -830.764 0
0 0 0

935.112 1237.29 0
1237.29 404.63 0
0 0 0

2473.97 2210.41 0
2210.41 1048.82 0
0 0 0

5426.08 522.488 0
522.488 4653.5 0
0 0 0

-4525.12 -1451.42 0
-1451.42 -1680 0
0 0 0

476.741 -1779.21 0
-1779.21 1874.83 0
0 0 0

-1014.76 -2938.55 0
-2938.55 -436.752 0
0 0 0

-1568.25 -2661.52 0
-2661.52 -4530.98 0
0 0 0

-5115.71 776.301 0
776.301 -271.028 0
0 0 0

951.641 2765.35 0
2765.35 2651.79 0
0 0 0

-5206.18 1804.1 0
1804.1 -1789.74 0
0 0 0

-5640.49 -1698.23 0
-1698.23 -3065.5 0
0 0 0

560.142 2981.82 0
2981.82 5283.15 0
0 0 0

-2543.83 2589.64 0
2589.64 1926.78 0
0 0 0

-8407.28 -4044.64 0
-4044.64 -2664.48 0
0 0 0

-3235.22 -3249.48 0
-3249.48 2702.22 0
0 0 0

-5008.86 2125.87 0
2125.87 2419.19 0
0 0 0

598.711 3210.46 0
3210.46 3478.29 0
0 0 0

-4595.71 -800.693 0
-800.693 127.235 0
0 0 0

-7708.37 1861.15 0
1861.15 -3710.53 0
0 0 0

-175.314 -1326.09 0
-1326.09 1528.51 0
0 0 0

-3397.46 -492.119 0
-492.119 -4654.37 0
0 0 0

990.882 -1578.28 0
-1578.28 -4623.87 0
0 0 0

-3049.24 205.302 0
205.302 -791.025 0
0 0 0

218.005 1129.95 0
1129.95 2716.9 0
0 0 0

-3180.28 -339.239 0
-339.239 -65.8807 0
0 0 0

1418.27 293.692 0
293.692 -989.65 0
0 0 0

491.815 -268.314 0
-268.314 -6097.29 0
0 0 0

-613.531 1047.14 0
1047.14 2052.83 0
0 0 0

2983.17 -3507.17 0
-3507.17 9290.33 0
0 0 0

2817.04 -5093.17 0
-5093.17 2875.76 0
0 0 0

2078.04 -1800.96 0
-1800.96 -5929 0
0 0 0

1788.21 -906.752 0
-906.752 1778.95 0
0 0 0

6800.95 6075.47 0
6075.47 2360.11 0
0 0 0

8134.45 -1566.8 0
-1566.8 -6004.72 0
0 0 0

2988.21 -2181.96 0
-2181.96 -541.143 0
0 0 0

TENSORS velocity_gradient double
0.150858 -5.78304 0
9.98747 -0.124619 0
0 0 0

-1.31353 -4.79668 0
9.71246 0.0606147 0
0 0 0

1.86653 -6.43917 0
7.32649 -0.703565 0
0 0 0

-1.37613 -4.42799 0
9.14905 -0.386151 0
0 0 0

-2.00373 -3.79828 0
9.70811 -1.61583 0
0 0 0

-0.700835 -4.20821 0
9.02147 -2.71416 0
0 0 0

-1.14495 -2.49915 0
10.1584 -1.02536 0
0 0 0

0.235673 -3.32404 0
10.8726 -1.45206 0
0 0 0

-1.70338 -5.45509 0
11.4695 -1.13309 0
0 0 0

-2.88248 -6.62739 0
11.2526 3.79994 0
0 0 0

-0.498927 -8.84494 0
9.51988 1.73377 0
0 0 0

-3.68183 -7.87054 0
10.6089 2.80829 0
0 0 0

-4.09131 -5.87118 0
10.2887 4.40292 0
0 0 0

-0.081217 -7.20722 0
9.63059 2.62191 0
0 0 0

-4.86884 -9.47838 0
9.41389 0.859573 0
0 0 0

-6.10881 -9.03789 0
7.48701 1.70569 0
0 0 0

2.02018 -6.21955 0
6.71555 -1.57682 0
0 0 0

1.05274 -2.65669 0
6.27 -0.5434 0
0 0 0

1.93859 -5.33394 0
7.78006 -0.862661 0
0 0 0

-0.0589108 -4.31706 0
6.1733 -0.68783 0
0 0 0

-0.562498 -1.82702 0
7.47636 -0.522679 0
0 0 0

0.187354 -11.2756 0
10.424 -2.26698 0
0 0 0

-1.39945 -5.45066 0
6.104 -1.32907 0
0 0 0

0.520921 -11.6527 0
6.66998 -3.27595 0
0 0 0

-1.78247 -10.929 0
7.87328 -0.939727 0
0 0 0

-3.39686 -9.55059 0
5.48856 -0.0809972 0
0 0 0

-0.30782 -12.3354 0
6.68696 -3.11038 0
0 0 0

-2.68537 -6.71961 0
4.90869 -1.51676 0
0 0 0

-3.01505 -10.3131 0
5.80872 -1.12789 0
0 0 0

-6.89277 -10.2925 0
6.24864 -0.276069 0
0 0 0

-0.406026 -8.15189 0
4.77097 -1.43022 0
0 0 0

0.75583 -13.3875 0
5.02122 -0.108616 0
0 0 0

2.19415 -5.40483 0
9.18756 -0.880192 0
0 0 0

2.26601 -5.45114 0
9.08907 -0.816728 0
0 0 0

2.23629 -5.33614 0
9.1298 -0.974348 0
0 0 0

2.34893 -5.85866 0
8.95955 -1.96897 0
0 0 0

-0.50854 -7.25997 0
6.4172 -2.12275 0
0 0 0

2.36427 -8.81832 0
7.15462 -2.53074 0
0 0 0

2.60772 -6.24849 0
8.5312 -2.23672 0
0 0 0

3.08875 -6.98377 0
7.95946 -1.86624 0
0 0 0

4.03314 -7.3359 0
7.80567 -1.43531 0
0 0 0

2.41838 -5.98835 0
8.18623 -1.46203 0
0 0 0

3.14628 -8.65555 0
8.03354 -0.902565 0
0 0 0

1.31942 -7.64229 0
8.41674 -1.1151 0
0 0 0

0.798928 -10.2283 0
5.32641 -0.141184 0
0 0 0

-0.876638 -17.4307 0
6.02765 1.8941 0
0 0 0

-0.760376 -21.3267 0
8.82568 3.51506 0
0 0 0

-2.88024 -19.9894 0
8.6134 3.1687 0
0 0 0

2.61834 -3.93561 0
9.83485 0.505744 0
0 0 0

2.64737 -5.92822 0
9.62041 -2.8097 0
0 0 0

3.20441 -6.44993 0
10.9452 -1.15236 0
0 0 0

2.52463 -6.50575 0
11.8762 -2.18387 0
0 0 0

2.76765 -5.97072 0
8.26525 -2.69866 0
0 0 0

2.86908 -9.58583 0
7.99297 -0.666562 0
0 0 0

2.03182 -7.33133 0
12.3563 -2.26155 0
0 0 0

2.86455 -9.70424 0
8.37084 -0.715493 0
0 0 0

2.65724 -9.46558 0
8.07438 -0.712775 0
0 0 0

1.24171 -19.544 0
8.71495 2.837 0
0 0 0

2.54105 -9.68057 0
8.11903 -0.630151 0
0 0 0

3.08305 -23.9288 0
10.3828 7.72875 0
0 0 0

-2.06034 -23.4931 0
9.07117 3.92416 0
0 0 0

-3.52783 -21.7211 0
9.70377 2.40419 0
0 0 0

4.03839 -24.399 0
13.794 6.04974 0
0 0 0

0.884077 -12.9935 0
13.3377 1.7902 0
0 0 0

SCALARS active double 1
LOOKUP_TABLE default
1
1
1
1
1
1
1
1
1
1
1
1
1
1
1
1
1
1
1
1
1
1
1
1
1
1
1
1
1
1
1
1
1
1
1
1
1
1
1
1
1
1
1
1
1
1
1
1
1
1
1
1
1
1
1
1
1
1
1
1
1
1
1
1
SCALARS extent double 1
LOOKUP_TABLE default
0.0125
0.0125
0.0125
0.0125
0.0125
0.0125
0.0125
0.0125
0.0125
0.0125
0.0125
0.0125
0.0125
0.0125
0.0125
0.0125
0.0125
0.0125
0.0125
0.0125
0.0125
0.0125
0.0125
0.0125
0.0125
0.0125
0.0125
0.0125
0.0125
0.0125
0.0125
0.0125
0.0125
0.0125
0.0125
0.0125
0.0125
0.0125
0.0125
0.0125
0.0125
0.0125
0.0125
0.0125
0.0125
0.0125
0.0125
0.0125
0.0125
0.0125
0.0125
0.0125
0.0125
0.0125
0.0125
0.0125
0.0125
0.0125
0.0125
0.0125
0.0125
0.0125
0.0125
0.0125
SCALARS pressure double 1
LOOKUP_TABLE default
540.438
210.269
365.606
582.224
-279.599
-505.504
314.113
116.308
-1368.81
1300.47
25.4928
411.42
977.828
-1342.01
1196.58
3164.82
1621.96
1045.1
4768.98
745.576
2866.97
2272.28
1568.22
1877.87
363.917
-314.157
2560.61
2670.48
-2241.75
-669.871
-1761.39
-5039.79
3102.56
-1175.79
725.755
3049.62
2693.37
-1801.72
3497.96
4353
-2921.65
308.526
5535.88
266.498
1294.84
-2038.5
2234.24
5709.45
-676.598
4025.91
1816.49
1920.13
-1467.45
1623.08
-214.31
2802.74
-719.647
-6136.75
-2846.4
1925.48
-1783.58
-4580.53
-1064.86
-1223.53
SCALARS density double 1
LOOKUP_TABLE default
1005.64
1002.19
1003.81
1006.07
997.096
994.757
1003.27
1001.21
985.865
1013.62
1000.27
1004.29
1010.22
986.14
1012.52
1033.46
1017.01
1010.93
1050.85
1007.78
1030.27
1023.91
1016.44
1019.72
1003.79
996.738
1026.99
1028.16
976.956
993.058
981.848
948.936
1032.79
987.846
1007.58
1032.22
1028.41
981.437
1037.05
1046.31
970.072
1003.21
1059.26
1002.78
1013.56
979.023
1023.51
1061.18
992.988
1042.76
1019.07
1020.17
984.854
1017.02
997.774
1029.58
992.544
938.172
970.831
1020.23
981.622
953.479
988.987
987.356
