# vtk DataFile Version 3.0
Frame: 58, Time: 0.986
ASCII
DATASET UNSTRUCTURED_GRID
POINTS 64 double
0.795691 0.352306 0 
0.820616 0.355091 0 
0.797519 0.325859 0 
0.822351 0.329815 0 
0.845611 0.357195 0 
0.870745 0.361066 0 
0.847737 0.331258 0 
0.872827 0.335057 0 
0.895147 0.362597 0 
0.920861 0.365649 0 
0.899748 0.33784 0 
0.92479 0.341438 0 
0.944318 0.37017 0 
0.97275 0.374337 0 
0.948102 0.344578 0 
0.976023 0.350749 0 
0.799684 0.302072 0 
0.82608 0.304702 0 
0.80469 0.277124 0 
0.830636 0.280548 0 
0.85143 0.307265 0 
0.87697 0.309978 0 
0.856137 0.282873 0 
0.880938 0.286081 0 
0.901867 0.312388 0 
0.927399 0.316096 0 
0.906177 0.287768 0 
0.931688 0.29124 0 
0.951586 0.318885 0 
0.978769 0.323746 0 
0.957656 0.29464 0 
0.981661 0.299846 0 
0.808058 0.251699 0 
0.833496 0.255421 0 
0.812175 0.227599 0 
0.837751 0.231008 0 
0.858619 0.257075 0 
0.884353 0.260486 0 
0.862205 0.233656 0 
0.888628 0.236043 0 
0.908417 0.264374 0 
0.933691 0.266721 0 
0.913334 0.240035 0 
0.938487 0.241569 0 
0.959397 0.271017 0 
0.98338 0.276118 0 
0.964383 0.245718 0 
0.989006 0.250794 0 
0.81493 0.202458 0 
0.839825 0.205928 0 
0.816737 0.177477 0 
0.84376 0.180171 0 
0.864835 0.208196 0 
0.891308 0.2124 0 
0.868443 0.181929 0 
0.893371 0.186781 0 
0.916927 0.214596 0 
0.940696 0.2185 0 
0.918637 0.188698 0 
0.943672 0.192133 0 
0.967066 0.221056 0 
0.992484 0.226896 0 
0.968172 0.195892 0 
0.993864 0.201523 0 
CELLS 64 128
1 0
1 1
1 2
1 3
1 4
1 5
1 6
1 7
1 8
1 9
1 10
1 11
1 12
1 13
1 14
1 15
1 16
1 17
1 18
1 19
1 20
1 21
1 22
1 23
1 24
1 25
1 26
1 27
1 28
1 29
1 30
1 31
1 32
1 33
1 34
1 35
1 36
1 37
1 38
1 39
1 40
1 41
1 42
1 43
1 44
1 45
1 46
1 47
1 48
1 49
1 50
1 51
1 52
1 53
1 54
1 55
1 56
1 57
1 58
1 59
1 60
1 61
1 62
1 63
CELL_TYPES 64
1
1
1
1
1
1
1
1
1
1
1
1
1
1
1
1
1
1
1
1
1
1
1
1
1
1
1
1
1
1
1
1
1
1
1
1
1
1
1
1
1
1
1
1
1
1
1
1
1
1
1
1
1
1
1
1
1
1
1
1
1
1
1
1
POINT_DATA 64
VECTORS displacement double
-0.416809 0.139806 0 
-0.391884 0.117591 0 
-0.439981 0.113359 0 
-0.415149 0.0923154 0 
-0.366889 0.094695 0 
-0.341755 0.0735662 0 
-0.389763 0.0687583 0 
-0.364673 0.047557 0 
-0.317353 0.0500973 0 
-0.291639 0.0281494 0 
-0.337752 0.02534 0 
-0.31271 0.00393759 0 
-0.268182 0.00766961 0 
-0.23975 -0.013163 0 
-0.289398 -0.0179216 0 
-0.261477 -0.0367509 0 
-0.462816 0.0895716 0 
-0.43642 0.0672023 0 
-0.48281 0.0646245 0 
-0.456864 0.0430479 0 
-0.41107 0.044765 0 
-0.38553 0.0224779 0 
-0.431363 0.0203728 0 
-0.406562 -0.00141887 0 
-0.360633 -0.000111604 0 
-0.335101 -0.0214041 0 
-0.381323 -0.0247319 0 
-0.355812 -0.0462596 0 
-0.310914 -0.0436154 0 
-0.283731 -0.0637537 0 
-0.329844 -0.06786 0 
-0.305839 -0.0876543 0 
-0.504442 0.0391985 0 
-0.479004 0.0179208 0 
-0.525325 0.0150995 0 
-0.499749 -0.0064919 0 
-0.453881 -0.00542453 0 
-0.428147 -0.0270138 0 
-0.475295 -0.0288441 0 
-0.448872 -0.0514573 0 
-0.404083 -0.0481259 0 
-0.378809 -0.0707793 0 
-0.424166 -0.0724649 0 
-0.399013 -0.095931 0 
-0.353103 -0.0914834 0 
-0.32912 -0.111382 0 
-0.373117 -0.116782 0 
-0.348494 -0.136706 0 
-0.54757 -0.0100416 0 
-0.522675 -0.0315719 0 
-0.570763 -0.0350225 0 
-0.54374 -0.057329 0 
-0.497665 -0.0543044 0 
-0.471192 -0.0751003 0 
-0.519057 -0.080571 0 
-0.494129 -0.100719 0 
-0.445573 -0.0979042 0 
-0.421804 -0.119 0 
-0.468863 -0.123802 0 
-0.443828 -0.145367 0 
-0.395434 -0.141444 0 
-0.370016 -0.160604 0 
-0.419328 -0.166608 0 
-0.393636 -0.185977 0 
VECTORS velocity double
-1.53696 0.0828838 0 
-1.81494 -0.0276632 0 
-1.36845 -0.221478 0 
-1.53162 0.0707511 0 
-1.60905 0.620293 0 
-1.68389 0.0251718 0 
-1.30815 0.0475719 0 
-1.32847 0.0741889 0 
-2.01276 0.599163 0 
-1.63086 0.510573 0 
-1.5873 0.304635 0 
-1.7238 0.825503 0 
-2.27195 0.654073 0 
-2.49631 1.19975 0 
-2.12028 0.288685 0 
-1.9585 0.966376 0 
-1.27173 0.0390273 0 
-1.35321 0.310857 0 
-1.37731 -0.245259 0 
-1.46135 -0.0611796 0 
-1.41032 0.475549 0 
-1.36122 0.484068 0 
-1.22625 0.281253 0 
-0.956547 0.161563 0 
-1.83987 0.278922 0 
-1.79051 0.241503 0 
-1.21935 0.186661 0 
-1.54379 0.0521547 0 
-1.85954 0.635237 0 
-2.18789 0.821 0 
-1.81149 0.278352 0 
-1.70014 0.658503 0 
-1.02058 -0.080103 0 
-1.0175 0.285044 0 
-0.784813 -0.181855 0 
-1.05084 0.160798 0 
-1.03774 0.477051 0 
-1.00709 0.141798 0 
-1.55663 0.294536 0 
-1.55894 0.119504 0 
-1.29402 0.146415 0 
-1.34517 0.323532 0 
-1.63988 -0.153362 0 
-1.24179 0.214576 0 
-1.57881 0.360231 0 
-1.61423 0.995444 0 
-1.46167 0.022149 0 
-1.56401 0.462793 0 
-1.08441 -0.0234742 0 
-0.911399 0.0696666 0 
-0.854613 -0.347022 0 
-1.04739 0.148717 0 
-1.31616 0.0770186 0 
-1.18752 0.069196 0 
-1.1914 -0.123517 0 
-1.34184 -0.240179 0 
-1.48167 -0.330334 0 
-1.32863 0.0643449 0 
-1.43229 -0.0945319 0 
-1.07108 0.250986 0 
-1.51468 0.208694 0 
-1.77906 0.476902 0 
-1.27191 -0.0370231 0 
-1.32784 0.506922 0 
SCALARS mass double 1
LOOKUP_TABLE default
0.625
0.625
0.625
0.625
0.625
0.625
0.625
0.625
0.625
0.625
0.625
0.625
0.625
0.625
0.625
0.625
0.625
0.625
0.625
0.625
0.625
0.625
0.625
0.625
0.625
0.625
0.625
0.625
0.625
0.625
0.625
0.625
0.625
0.625
0.625
0.625
0.625
0.625
0.625
0.625
0.625
0.625
0.625
0.625
0.625
0.625
0.625
0.625
0.625
0.625
0.625
0.625
0.625
0.625
0.625
0.625
0.625
0.625
0.625
0.625
0.625
0.625
0.625
0.625
SCALARS volume double 1
LOOKUP_TABLE default
0.000624112
0.000632438
0.00063906
0.000631896
0.000612242
0.000619858
0.000610728
0.00062881
0.000614634
0.000620441
0.0006448
0.000606009
0.000617243
0.000627676
0.000661237
0.000606181
0.000623305
0.000626067
0.000630087
0.000624543
0.000625711
0.000627891
0.000629294
0.000623798
0.000624285
0.00059621
0.000605162
0.000656064
0.000610316
0.000626577
0.000631835
0.000641377
0.000634517
0.00062656
0.000605993
0.000631851
0.000607821
0.000639087
0.000613362
0.000608323
0.000612168
0.00062639
0.000634753
0.000627026
0.000606214
0.00062218
0.000641078
0.000646411
0.000626027
0.000629917
0.000623336
0.000617411
0.000626704
0.000631629
0.000627677
0.000617374
0.000652101
0.00061989
0.000623584
0.00062434
0.000616879
0.000611895
0.000631773
0.00063198
VECTORS momentum double
-0.960599 0.0518024 0 
-1.13434 -0.0172895 0 
-0.855283 -0.138424 0 
-0.95726 0.0442194 0 
-1.00566 0.387683 0 
-1.05243 0.0157324 0 
-0.817594 0.0297324 0 
-0.830292 0.0463681 0 
-1.25797 0.374477 0 
-1.01929 0.319108 0 
-0.992064 0.190397 0 
-1.07738 0.515939 0 
-1.41997 0.408795 0 
-1.56019 0.749844 0 
-1.32517 0.180428 0 
-1.22406 0.603985 0 
-0.794833 0.0243921 0 
-0.845756 0.194286 0 
-0.860818 -0.153287 0 
-0.913343 -0.0382373 0 
-0.881448 0.297218 0 
-0.850764 0.302543 0 
-0.766405 0.175783 0 
-0.597842 0.100977 0 
-1.14992 0.174326 0 
-1.11907 0.15094 0 
-0.762095 0.116663 0 
-0.96487 0.0325967 0 
-1.16221 0.397023 0 
-1.36743 0.513125 0 
-1.13218 0.17397 0 
-1.06259 0.411564 0 
-0.637862 -0.0500644 0 
-0.635937 0.178152 0 
-0.490508 -0.113659 0 
-0.656772 0.100499 0 
-0.648587 0.298157 0 
-0.629429 0.0886237 0 
-0.972896 0.184085 0 
-0.974336 0.0746899 0 
-0.80876 0.0915092 0 
-0.840731 0.202207 0 
-1.02492 -0.095851 0 
-0.776119 0.13411 0 
-0.986759 0.225144 0 
-1.00889 0.622152 0 
-0.913546 0.0138431 0 
-0.977507 0.289246 0 
-0.677759 -0.0146714 0 
-0.569624 0.0435416 0 
-0.534133 -0.216889 0 
-0.65462 0.0929482 0 
-0.822597 0.0481366 0 
-0.742197 0.0432475 0 
-0.744625 -0.0771982 0 
-0.838647 -0.150112 0 
-0.926044 -0.206458 0 
-0.830397 0.0402155 0 
-0.895179 -0.0590825 0 
-0.669426 0.156866 0 
-0.946673 0.130433 0 
-1.11191 0.298064 0 
-0.794942 -0.0231394 0 
-0.8299 0.316827 0 
VECTORS body_force double
0 -9.81 0 
0 -9.81 0 
0 -9.81 0 
0 -9.81 0 
0 -9.81 0 
0 -9.81 0 
0 -9.81 0 
0 -9.81 0 
0 -9.81 0 
0 -9.81 0 
0 -9.81 0 
0 -9.81 0 
0 -9.81 0 
0 -9.81 0 
0 -9.81 0 
0 -9.81 0 
0 -9.81 0 
0 -9.81 0 
0 -9.81 0 
0 -9.81 0 
0 -9.81 0 
0 -9.81 0 
0 -9.81 0 
0 -9.81 0 
0 -9.81 0 
0 -9.81 0 
0 -9.81 0 
0 -9.81 0 
0 -9.81 0 
0 -9.81 0 
0 -9.81 0 
0 -9.81 0 
0 -9.81 0 
0 -9.81 0 
0 -9.81 0 
0 -9.81 0 
0 -9.81 0 
0 -9.81 0 
0 -9.81 0 
0 -9.81 0 
0 -9.81 0 
0 -9.81 0 
0 -9.81 0 
0 -9.81 0 
0 -9.81 0 
0 -9.81 0 
0 -9.81 0 
0 -9.81 0 
0 -9.81 0 
0 -9.81 0 
0 -9.81 0 
0 -9.81 0 
0 -9.81 0 
0 -9.81 0 
0 -9.81 0 
0 -9.81 0 
0 -9.81 0 
0 -9.81 0 
0 -9.81 0 
0 -9.81 0 
0 -9.81 0 
0 -9.81 0 
0 -9.81 0 
0 -9.81 0 
TENSORS cauchy_stress double
-638.331 -589.575 0
-589.575 364.804 0
0 0 0

1437.89 120.426 0
120.426 837.106 0
0 0 0

152.694 509.783 0
509.783 4125.52 0
0 0 0

-1064.26 227.149 0
227.149 3174.53 0
0 0 0

-4038.31 -1153.29 0
-1153.29 72.2629 0
0 0 0

-1320.3 650.09 0
650.09 -268.373 0
0 0 0

-213.486 -1657.68 0
-1657.68 -4228.91 0
0 0 0

1730.43 -1024.99 0
-1024.99 -561.813 0
0 0 0

-3532.46 1309.11 0
1309.11 316.308 0
0 0 0

-565.437 744.895 0
744.895 -842.454 0
0 0 0

4000.52 486.417 0
486.417 1997.24 0
0 0 0

-3664.79 -3841.13 0
-3841.13 -2269.21 0
0 0 0

-1188.07 1028.42 0
1028.42 -1213.57 0
0 0 0

751.88 226.403 0
226.403 69.883 0
0 0 0

5103.22 1181.01 0
1181.01 5735.45 0
0 0 0

-2883.85 -2287.42 0
-2287.42 -2995.56 0
0 0 0

1674.41 -2573.26 0
-2573.26 -2196.77 0
0 0 0

2433.22 -1997.41 0
-1997.41 -2105.32 0
0 0 0

2140.21 -559.251 0
-559.251 -581.164 0
0 0 0

1162.17 -1404 0
-1404 -1302.86 0
0 0 0

2039.68 -69.276 0
-69.276 -1821 0
0 0 0

1120.96 -1041.29 0
-1041.29 -233.48 0
0 0 0

415.159 -1536.03 0
-1536.03 901.412 0
0 0 0

555.042 -1302.86 0
-1302.86 -925.309 0
0 0 0

377.656 -189.57 0
-189.57 -597.798 0
0 0 0

-6067.31 984.88 0
984.88 -3001.79 0
0 0 0

-1948.71 -682.792 0
-682.792 -4254.24 0
0 0 0

6279.9 -25.6298 0
-25.6298 3048.19 0
0 0 0

-358.32 2389.35 0
2389.35 -4213.63 0
0 0 0

-326.16 1692.18 0
1692.18 810.925 0
0 0 0

1743.94 -1298.06 0
-1298.06 347.596 0
0 0 0

3290.12 -1487.42 0
-1487.42 1684.12 0
0 0 0

227.184 -1664.45 0
-1664.45 2678.93 0
0 0 0

460.972 -302.922 0
-302.922 18.4667 0
0 0 0

-1221.76 -1618.61 0
-1618.61 -4717.34 0
0 0 0

2116.18 415.326 0
415.326 -19.6375 0
0 0 0

290.669 -3884.03 0
-3884.03 -5650.68 0
0 0 0

71.5562 -2388.82 0
-2388.82 4214.85 0
0 0 0

-1424.98 -426.571 0
-426.571 -2189.82 0
0 0 0

-340.435 187.174 0
187.174 -4860.5 0
0 0 0

1860.73 -6779.31 0
-6779.31 -5849.97 0
0 0 0

-1120.6 891.035 0
891.035 1547.77 0
0 0 0

-533.605 387.24 0
387.24 3511.35 0
0 0 0

1795.78 583 0
583 -1173.3 0
0 0 0

562.962 179.841 0
179.841 -6431.85 0
0 0 0

-2358.33 1523.04 0
1523.04 1488.71 0
0 0 0

470.078 3482.54 0
3482.54 4414.4 0
0 0 0

2039.05 1389.71 0
1389.71 4438.59 0
0 0 0

-1062.84 -614.819 0
-614.819 1378.51 0
0 0 0

1037.49 -196.741 0
-196.741 469.424 0
0 0 0

-769.424 1654.19 0
1654.19 256.594 0
0 0 0

-1002.18 -2826.88 0
-2826.88 -1347.1 0
0 0 0

-144.341 -534.865 0
-534.865 667.931 0
0 0 0

4571.27 -329.755 0
-329.755 -2542.25 0
0 0 0

165.358 727.375 0
727.375 656.618 0
0 0 0

-1597.68 -518.244 0
-518.244 -763.323 0
0 0 0

2200.45 113.802 0
113.802 5962.73 0
0 0 0

750.228 -665.295 0
-665.295 -2329.05 0
0 0 0

3316.51 -287.511 0
-287.511 -3752.82 0
0 0 0

-2849.08 1563.89 0
1563.89 2646.02 0
0 0 0

-185.056 318.646 0
318.646 -2330.23 0
0 0 0

-2386.68 -922.729 0
-922.729 -1688.56 0
0 0 0

2634.51 1350.05 0
1350.05 -561.84 0
0 0 0

382.233 1499.29 0
1499.29 1753.59 0
0 0 0

TENSORS velocity_gradient double
-0.66726 -2.50696 0
2.37617 0.180559 0
0 0 0

0.281897 -2.72119 0
4.91961 0.311515 0
0 0 0

-0.868926 -4.59785 0
3.39709 0.324114 0
0 0 0

0.514049 -4.43441 0
4.8548 0.160995 0
0 0 0

-0.757815 -3.56089 0
4.41391 0.689072 0
0 0 0

-3.37325 -3.86633 0
3.10663 1.18795 0
0 0 0

-0.897508 -4.50204 0
3.62815 0.26602 0
0 0 0

-2.84309 -5.17412 0
2.20604 1.22101 0
0 0 0

-4.09679 -3.98464 0
3.69349 1.74748 0
0 0 0

-6.23398 -4.02345 0
5.49447 2.88019 0
0 0 0

-4.88676 -5.92517 0
3.49734 2.40456 0
0 0 0

-6.15835 -6.16466 0
4.38574 3.44766 0
0 0 0

-5.56661 -4.06243 0
5.83873 4.01579 0
0 0 0

-3.12199 -4.48468 0
6.47312 5.10846 0
0 0 0

-4.41898 -6.27805 0
5.07076 4.28577 0
0 0 0

-2.75427 -5.47408 0
5.73324 4.84067 0
0 0 0

-0.795542 -4.67593 0
4.31734 0.681473 0
0 0 0

0.445997 -4.36098 0
4.88013 0.255503 0
0 0 0

-0.821037 -5.13989 0
5.15073 1.12723 0
0 0 0

-0.66551 -3.64134 0
5.07979 0.834678 0
0 0 0

-1.2922 -4.55661 0
2.05797 0.344159 0
0 0 0

-2.0619 -5.29952 0
1.09765 1.39894 0
0 0 0

-2.27283 -2.35181 0
-0.361233 1.08573 0
0 0 0

-2.17785 -1.61596 0
-0.17085 2.56077 0
0 0 0

-5.07052 -5.96308 0
2.73884 2.48887 0
0 0 0

-5.9768 -6.18239 0
3.34819 3.54903 0
0 0 0

-4.96604 -1.63871 0
2.6857 3.62275 0
0 0 0

-5.21004 -3.48445 0
2.69063 3.66003 0
0 0 0

-3.40158 -6.33335 0
5.08556 4.3596 0
0 0 0

-2.64614 -6.40129 0
5.57501 4.46836 0
0 0 0

-2.61285 -4.72335 0
5.40851 3.89393 0
0 0 0

-2.61108 -5.39129 0
5.46464 4.41141 0
0 0 0

-2.22149 -3.81089 0
5.2718 1.28776 0
0 0 0

-2.11988 -3.34997 0
5.31959 0.944015 0
0 0 0

-2.4098 -1.76286 0
4.56703 1.817 0
0 0 0

-2.41744 -1.82258 0
4.68892 2.76925 0
0 0 0

-3.03537 -2.27992 0
-1.88978 1.22983 0
0 0 0

-2.93326 -1.51582 0
-1.6851 2.7615 0
0 0 0

-3.89685 -1.31281 0
-2.22698 3.12452 0
0 0 0

-3.79946 -0.253274 0
-2.23751 3.00997 0
0 0 0

-3.28834 -1.79772 0
2.65181 3.62596 0
0 0 0

-3.45176 -3.62294 0
2.65511 3.66283 0
0 0 0

-1.65406 -0.745751 0
2.68737 2.8844 0
0 0 0

-1.74298 -2.27808 0
2.67921 2.7437 0
0 0 0

-2.68074 -4.65729 0
4.93544 3.90705 0
0 0 0

-2.66619 -4.58668 0
5.03602 4.395 0
0 0 0

-2.7496 -3.10052 0
4.59358 2.71259 0
0 0 0

-2.73745 -3.74426 0
4.61629 3.44093 0
0 0 0

-2.42092 -1.62676 0
3.72562 2.00124 0
0 0 0

-2.3658 -1.78728 0
3.76852 2.81815 0
0 0 0

-3.13091 -1.22866 0
3.80244 2.1769 0
0 0 0

-3.20319 -0.306157 0
3.19428 1.88868 0
0 0 0

-4.91039 -1.20857 0
-2.1174 3.11325 0
0 0 0

-4.74073 -0.145994 0
-2.13574 2.99837 0
0 0 0

-4.94519 -0.414097 0
-2.80686 2.5892 0
0 0 0

-4.52685 -0.841379 0
-2.11291 3.53708 0
0 0 0

-0.11092 -0.963088 0
2.82907 2.86445 0
0 0 0

-0.343618 -2.40922 0
2.8077 2.73165 0
0 0 0

1.51268 -2.21006 0
3.88224 2.09082 0
0 0 0

0.927343 -3.83457 0
3.7188 0.00309055 0
0 0 0

-2.79911 -2.85535 0
4.84005 2.48229 0
0 0 0

-2.70816 -2.80305 0
4.66321 2.19952 0
0 0 0

-2.60406 -4.7023 0
4.92905 0.37445 0
0 0 0

-2.28871 -4.13977 0
4.30001 1.51331 0
0 0 0

SCALARS active double 1
LOOKUP_TABLE default
1
1
1
1
1
1
1
1
1
1
1
1
1
1
1
1
1
1
1
1
1
1
1
1
1
1
1
1
1
1
1
1
1
1
1
1
1
1
1
1
1
1
1
1
1
1
1
1
1
1
1
1
1
1
1
1
1
1
1
1
1
1
1
1
SCALARS extent double 1
LOOKUP_TABLE default
0.0125
0.0125
0.0125
0.0125
0.0125
0.0125
0.0125
0.0125
0.0125
0.0125
0.0125
0.0125
0.0125
0.0125
0.0125
0.0125
0.0125
0.0125
0.0125
0.0125
0.0125
0.0125
0.0125
0.0125
0.0125
0.0125
0.0125
0.0125
0.0125
0.0125
0.0125
0.0125
0.0125
0.0125
0.0125
0.0125
0.0125
0.0125
0.0125
0.0125
0.0125
0.0125
0.0125
0.0125
0.0125
0.0125
0.0125
0.0125
0.0125
0.0125
0.0125
0.0125
0.0125
0.0125
0.0125
0.0125
0.0125
0.0125
0.0125
0.0125
0.0125
0.0125
0.0125
0.0125
SCALARS pressure double 1
LOOKUP_TABLE default
136.764
-1137.5
-2139.11
-1055.13
1983.02
794.339
2221.2
-584.307
1608.08
703.945
-2998.88
2967
1200.82
-410.881
-5419.33
2939.71
261.179
-163.953
-779.522
70.3437
-109.342
-443.739
-658.285
185.134
110.071
4534.55
3101.47
-4664.05
2285.97
-242.383
-1045.77
-2487.12
-1453.06
-239.719
2969.55
-1048.27
2680
-2143.2
1807.4
2600.47
1994.62
-213.585
-1488.87
-311.242
2934.44
434.813
-2442.24
-3238.82
-157.834
-753.456
256.415
1174.64
-261.795
-1014.51
-410.988
1180.5
-4081.59
789.412
218.155
101.531
1257.64
2037.62
-1036.33
-1067.91
SCALARS density double 1
LOOKUP_TABLE default
1001.42
988.24
977.999
989.087
1020.84
1008.3
1023.37
993.942
1016.86
1007.35
969.293
1031.34
1012.57
995.736
945.198
1031.05
1002.72
998.296
991.926
1000.73
998.863
995.396
993.177
1001.93
1001.15
1048.29
1032.78
952.652
1024.06
997.482
989.183
974.466
985.002
997.51
1031.37
989.157
1028.26
977.957
1018.97
1027.41
1020.96
997.781
984.635
996.768
1030.99
1004.53
974.921
966.877
998.36
992.195
1002.67
1012.29
997.281
989.505
995.735
1012.35
958.44
1008.24
1002.27
1001.06
1013.17
1021.42
989.28
988.955
