# vtk DataFile Version 3.0
Frame: 13, Time: 0.221
ASCII
DATASET UNSTRUCTURED_GRID
POINTS 64 double
0.810251 0.188608 0 
0.785319 0.191881 0 
0.81313 0.214042 0 
0.789158 0.216802 0 
0.759126 0.197607 0 
0.735072 0.201023 0 
0.763411 0.2227 0 
0.738514 0.225899 0 
0.709223 0.204995 0 
0.683982 0.211627 0 
0.713516 0.229772 0 
0.689075 0.236692 0 
0.659336 0.216382 0 
0.63421 0.222704 0 
0.663897 0.241488 0 
0.639251 0.247292 0 
0.817325 0.238994 0 
0.793002 0.24165 0 
0.823106 0.261692 0 
0.79876 0.266048 0 
0.768903 0.246733 0 
0.743255 0.250073 0 
0.773635 0.271024 0 
0.748163 0.27478 0 
0.717457 0.254659 0 
0.694005 0.26108 0 
0.723883 0.279909 0 
0.699132 0.28613 0 
0.66948 0.265706 0 
0.645346 0.272189 0 
0.674709 0.291002 0 
0.651019 0.297118 0 
0.828056 0.285865 0 
0.802832 0.290444 0 
0.833423 0.309714 0 
0.808521 0.314697 0 
0.77813 0.295672 0 
0.75369 0.299865 0 
0.784016 0.320268 0 
0.759233 0.324964 0 
0.729314 0.30493 0 
0.705155 0.310503 0 
0.734887 0.329492 0 
0.710847 0.335221 0 
0.680687 0.316026 0 
0.655895 0.32214 0 
0.686439 0.340669 0 
0.661813 0.346405 0 
0.839469 0.333818 0 
0.814453 0.338991 0 
0.845223 0.357876 0 
0.820111 0.36347 0 
0.78971 0.344573 0 
0.765132 0.350113 0 
0.795063 0.36906 0 
0.770355 0.374811 0 
0.740827 0.354795 0 
0.716394 0.360283 0 
0.745994 0.37978 0 
0.722127 0.385118 0 
0.691698 0.36552 0 
0.667258 0.371182 0 
0.697209 0.390192 0 
0.672983 0.395928 0 
CELLS 64 128
1 0
1 1
1 2
1 3
1 4
1 5
1 6
1 7
1 8
1 9
1 10
1 11
1 12
1 13
1 14
1 15
1 16
1 17
1 18
1 19
1 20
1 21
1 22
1 23
1 24
1 25
1 26
1 27
1 28
1 29
1 30
1 31
1 32
1 33
1 34
1 35
1 36
1 37
1 38
1 39
1 40
1 41
1 42
1 43
1 44
1 45
1 46
1 47
1 48
1 49
1 50
1 51
1 52
1 53
1 54
1 55
1 56
1 57
1 58
1 59
1 60
1 61
1 62
1 63
CELL_TYPES 64
1
1
1
1
1
1
1
1
1
1
1
1
1
1
1
1
1
1
1
1
1
1
1
1
1
1
1
1
1
1
1
1
1
1
1
1
1
1
1
1
1
1
1
1
1
1
1
1
1
1
1
1
1
1
1
1
1
1
1
1
1
1
1
1
POINT_DATA 64
VECTORS displacement double
0.197751 -0.123892 0 
0.172819 -0.145619 0 
0.17563 -0.0984582 0 
0.151658 -0.120698 0 
0.146626 -0.164893 0 
0.122572 -0.186477 0 
0.125911 -0.1398 0 
0.101014 -0.161601 0 
0.0967229 -0.207505 0 
0.0714819 -0.225873 0 
0.076016 -0.182728 0 
0.0515745 -0.200808 0 
0.046836 -0.246118 0 
0.0217104 -0.264796 0 
0.0263967 -0.221012 0 
0.00175112 -0.240208 0 
0.154825 -0.0735062 0 
0.130502 -0.0958501 0 
0.135606 -0.0508082 0 
0.11126 -0.0714522 0 
0.106403 -0.115767 0 
0.0807549 -0.137427 0 
0.0861347 -0.0914763 0 
0.0606629 -0.11272 0 
0.0549572 -0.157841 0 
0.0315048 -0.17642 0 
0.0363826 -0.132591 0 
0.0116324 -0.15137 0 
0.00697957 -0.196794 0 
-0.0171545 -0.215311 0 
-0.0127908 -0.171498 0 
-0.0364812 -0.190382 0 
0.115556 -0.0266349 0 
0.0903322 -0.0470562 0 
0.0959228 -0.00278583 0 
0.0710215 -0.0228027 0 
0.0656303 -0.0668284 0 
0.0411899 -0.0876351 0 
0.0465162 -0.0422323 0 
0.0217333 -0.0625356 0 
0.0168135 -0.10757 0 
-0.00734509 -0.126997 0 
-0.00261288 -0.0830077 0 
-0.0266529 -0.102279 0 
-0.0318127 -0.146474 0 
-0.0566052 -0.16536 0 
-0.0510615 -0.121831 0 
-0.0756872 -0.141095 0 
0.076969 0.0213181 0 
0.0519531 0.00149072 0 
0.0577233 0.0453759 0 
0.0326109 0.0259704 0 
0.0272102 -0.0179271 0 
0.00263175 -0.0373868 0 
0.00756334 0.00656 0 
-0.0171453 -0.0126885 0 
-0.0216732 -0.0577047 0 
-0.0461062 -0.077217 0 
-0.0415056 -0.0327201 0 
-0.0653728 -0.0523821 0 
-0.0708024 -0.0969803 0 
-0.0952425 -0.116318 0 
-0.0902913 -0.0723077 0 
-0.114517 -0.0915722 0 
VECTORS velocity double
2.28662 -0.875333 0 
2.02097 -1.14651 0 
1.63262 -0.153762 0 
1.66745 -1.26842 0 
1.95447 -0.938581 0 
1.86746 -1.45489 0 
1.58642 -1.0173 0 
1.33209 -1.17016 0 
1.9376 -1.60295 0 
1.70311 -1.61328 0 
1.58138 -1.33485 0 
1.48877 -1.40597 0 
2.135 -1.64578 0 
1.71596 -2.03349 0 
1.41407 -1.31402 0 
1.00448 -2.22078 0 
1.51676 -0.417033 0 
1.22354 -1.07634 0 
1.58644 -0.434082 0 
1.49027 -1.01863 0 
1.47937 -1.1141 0 
1.46011 -1.22689 0 
1.35069 -1.1567 0 
1.2539 -1.26488 0 
1.63263 -1.71657 0 
1.35143 -1.78293 0 
1.22202 -1.39303 0 
0.859168 -1.42094 0 
1.44732 -1.63688 0 
1.2584 -2.11386 0 
1.08312 -1.57051 0 
0.848182 -2.18161 0 
1.18592 -0.800062 0 
1.19387 -1.13703 0 
1.10565 -0.148225 0 
0.867468 -0.856128 0 
1.13643 -1.09487 0 
1.0068 -1.34319 0 
0.827201 -0.82883 0 
0.503678 -1.28057 0 
0.969133 -1.51172 0 
0.843207 -1.41839 0 
0.583971 -1.59361 0 
0.582817 -1.44805 0 
0.857987 -1.58206 0 
0.467432 -2.19033 0 
0.526475 -1.42626 0 
0.234522 -2.04982 0 
0.894248 -0.460742 0 
0.661885 -0.924829 0 
0.0902788 -0.40274 0 
-0.0556201 -0.616215 0 
0.512944 -1.24147 0 
0.520289 -1.25216 0 
0.0238483 -1.0111 0 
-0.114248 -1.03204 0 
0.564439 -1.51761 0 
0.457134 -1.63542 0 
0.000760266 -1.23131 0 
0.108841 -1.63776 0 
0.55862 -1.5518 0 
0.385871 -2.36459 0 
-0.195035 -1.27597 0 
-0.231636 -2.19557 0 
SCALARS mass double 1
LOOKUP_TABLE default
0.625
0.625
0.625
0.625
0.625
0.625
0.625
0.625
0.625
0.625
0.625
0.625
0.625
0.625
0.625
0.625
0.625
0.625
0.625
0.625
0.625
0.625
0.625
0.625
0.625
0.625
0.625
0.625
0.625
0.625
0.625
0.625
0.625
0.625
0.625
0.625
0.625
0.625
0.625
0.625
0.625
0.625
0.625
0.625
0.625
0.625
0.625
0.625
0.625
0.625
0.625
0.625
0.625
0.625
0.625
0.625
0.625
0.625
0.625
0.625
0.625
0.625
0.625
0.625
SCALARS volume double 1
LOOKUP_TABLE default
0.000636887
0.000636453
0.000628968
0.000620632
0.00062944
0.000621087
0.000620342
0.000626923
0.00063087
0.000628858
0.000623428
0.000629757
0.000630688
0.000630946
0.00063887
0.000631503
0.000595803
0.000630433
0.00062
0.000610627
0.000608118
0.000627739
0.000629895
0.000655924
0.000621602
0.000637369
0.000645374
0.000631087
0.000612028
0.000627806
0.000621333
0.000623461
0.000612009
0.000635666
0.000626303
0.000621681
0.000615262
0.000621868
0.000616564
0.000644224
0.000609675
0.000632483
0.000645794
0.000621479
0.000648044
0.000621952
0.000629724
0.000626676
0.000612328
0.000637015
0.000621257
0.000626453
0.000620788
0.000634077
0.000633351
0.000619813
0.00063018
0.000631675
0.000619989
0.000626734
0.000631458
0.000625374
0.000617789
0.000618677
VECTORS momentum double
1.42914 -0.547083 0 
1.26311 -0.716571 0 
1.02039 -0.0961014 0 
1.04216 -0.792763 0 
1.22154 -0.586613 0 
1.16716 -0.909304 0 
0.991511 -0.63581 0 
0.832554 -0.731349 0 
1.211 -1.00185 0 
1.06444 -1.0083 0 
0.988363 -0.83428 0 
0.93048 -0.878729 0 
1.33438 -1.02861 0 
1.07248 -1.27093 0 
0.883793 -0.821262 0 
0.627801 -1.38798 0 
0.947978 -0.260645 0 
0.764711 -0.672713 0 
0.991523 -0.271301 0 
0.931421 -0.636643 0 
0.924609 -0.696314 0 
0.91257 -0.766804 0 
0.844181 -0.722938 0 
0.783686 -0.790548 0 
1.02039 -1.07286 0 
0.844643 -1.11433 0 
0.763761 -0.870642 0 
0.53698 -0.888086 0 
0.904578 -1.02305 0 
0.786503 -1.32116 0 
0.67695 -0.981567 0 
0.530114 -1.36351 0 
0.741199 -0.500039 0 
0.746166 -0.710646 0 
0.691028 -0.0926408 0 
0.542167 -0.53508 0 
0.710268 -0.684297 0 
0.62925 -0.839495 0 
0.517 -0.518019 0 
0.314799 -0.800357 0 
0.605708 -0.944823 0 
0.527004 -0.886495 0 
0.364982 -0.996006 0 
0.36426 -0.905029 0 
0.536242 -0.988788 0 
0.292145 -1.36895 0 
0.329047 -0.891415 0 
0.146576 -1.28114 0 
0.558905 -0.287964 0 
0.413678 -0.578018 0 
0.0564242 -0.251713 0 
-0.0347625 -0.385134 0 
0.32059 -0.775919 0 
0.32518 -0.782602 0 
0.0149052 -0.631936 0 
-0.0714049 -0.645024 0 
0.352774 -0.948507 0 
0.285709 -1.02214 0 
0.000475166 -0.769567 0 
0.0680254 -1.0236 0 
0.349137 -0.969873 0 
0.241169 -1.47787 0 
-0.121897 -0.797481 0 
-0.144772 -1.37223 0 
VECTORS body_force double
0 -9.81 0 
0 -9.81 0 
0 -9.81 0 
0 -9.81 0 
0 -9.81 0 
0 -9.81 0 
0 -9.81 0 
0 -9.81 0 
0 -9.81 0 
0 -9.81 0 
0 -9.81 0 
0 -9.81 0 
0 -9.81 0 
0 -9.81 0 
0 -9.81 0 
0 -9.81 0 
0 -9.81 0 
0 -9.81 0 
0 -9.81 0 
0 -9.81 0 
0 -9.81 0 
0 -9.81 0 
0 -9.81 0 
0 -9.81 0 
0 -9.81 0 
0 -9.81 0 
0 -9.81 0 
0 -9.81 0 
0 -9.81 0 
0 -9.81 0 
0 -9.81 0 
0 -9.81 0 
0 -9.81 0 
0 -9.81 0 
0 -9.81 0 
0 -9.81 0 
0 -9.81 0 
0 -9.81 0 
0 -9.81 0 
0 -9.81 0 
0 -9.81 0 
0 -9.81 0 
0 -9.81 0 
0 -9.81 0 
0 -9.81 0 
0 -9.81 0 
0 -9.81 0 
0 -9.81 0 
0 -9.81 0 
0 -9.81 0 
0 -9.81 0 
0 -9.81 0 
0 -9.81 0 
0 -9.81 0 
0 -9.81 0 
0 -9.81 0 
0 -9.81 0 
0 -9.81 0 
0 -9.81 0 
0 -9.81 0 
0 -9.81 0 
0 -9.81 0 
0 -9.81 0 
0 -9.81 0 
TENSORS cauchy_stress double
2361.61 87.0285 0
87.0285 1261.48 0
0 0 0

2919.46 -453.087 0
-453.087 572.783 0
0 0 0

-2601.87 -3238.86 0
-3238.86 3818.89 0
0 0 0

-1212.29 -953.449 0
-953.449 -136.521 0
0 0 0

1132.31 -124.544 0
-124.544 229.034 0
0 0 0

1060.82 -299.658 0
-299.658 -2268.53 0
0 0 0

-3732.79 -3587.74 0
-3587.74 2294.24 0
0 0 0

-973.818 -32.5268 0
-32.5268 1564.68 0
0 0 0

922.584 -379.757 0
-379.757 874.996 0
0 0 0

-549.163 -1710.35 0
-1710.35 1732.74 0
0 0 0

-636.043 -3355.36 0
-3355.36 151.791 0
0 0 0

435.913 -1851.37 0
-1851.37 1022.19 0
0 0 0

1499.57 11.391 0
11.391 242.79 0
0 0 0

1431.03 -560.589 0
-560.589 389.876 0
0 0 0

1866.39 -130.442 0
-130.442 2354.66 0
0 0 0

-226.175 -1428.38 0
-1428.38 2216.71 0
0 0 0

-941.964 2547.51 0
2547.51 -8258.43 0
0 0 0

1177.63 1977.16 0
1977.16 486.929 0
0 0 0

-191.032 -624.591 0
-624.591 -1353.64 0
0 0 0

-2139 -75.3756 0
-75.3756 -2335.05 0
0 0 0

-2199.06 1407.92 0
1407.92 -3066.74 0
0 0 0

5430.13 1682.34 0
1682.34 -4589.25 0
0 0 0

1612.26 -258.811 0
-258.811 -111.84 0
0 0 0

3356.22 1041.77 0
1041.77 5930.96 0
0 0 0

-2771.14 -493.166 0
-493.166 1722.72 0
0 0 0

612.571 -384.372 0
-384.372 3156.22 0
0 0 0

-361.4 -741.114 0
-741.114 6530.39 0
0 0 0

2639.75 370.208 0
370.208 -775.759 0
0 0 0

-2249.24 136.191 0
136.191 -1784.24 0
0 0 0

65.088 740.981 0
740.981 796.393 0
0 0 0

-4043.46 -829.439 0
-829.439 2911.95 0
0 0 0

-1978.62 -355.067 0
-355.067 1504.41 0
0 0 0

619.222 -1858.41 0
-1858.41 -4658.51 0
0 0 0

2080.43 1047.32 0
1047.32 1173.85 0
0 0 0

866.405 -70.598 0
-70.598 -465.866 0
0 0 0

1028.57 1767.39 0
1767.39 -2052.55 0
0 0 0

-2674.17 143.465 0
143.465 -345.781 0
0 0 0

-412.677 922.5 0
922.5 -553.53 0
0 0 0

-1207.72 1059.75 0
1059.75 -1405.65 0
0 0 0

2456.95 4058.56 0
4058.56 3369.01 0
0 0 0

-3098.31 152.244 0
152.244 -1675.9 0
0 0 0

-237.708 586.038 0
586.038 2526.42 0
0 0 0

-256.631 -73.9203 0
-73.9203 6550.68 0
0 0 0

-1499.8 -464.885 0
-464.885 413.474 0
0 0 0

2142.79 287.637 0
287.637 4820.11 0
0 0 0

-85.8265 -1379.41 0
-1379.41 -854.396 0
0 0 0

1287.72 781.509 0
781.509 160.47 0
0 0 0

-1017.91 -1210.87 0
-1210.87 1533.01 0
0 0 0

-1702.21 -902.931 0
-902.931 -2236.89 0
0 0 0

3603.26 -110.871 0
-110.871 58.6012 0
0 0 0

-1023.48 -1089.73 0
-1089.73 -131.822 0
0 0 0

1029.08 2272.78 0
2272.78 -582.65 0
0 0 0

-2744.44 -2419.1 0
-2419.1 1444.15 0
0 0 0

868.802 454.903 0
454.903 1903.93 0
0 0 0

3235.86 586.043 0
586.043 -683.396 0
0 0 0

-762.39 1633.43 0
1633.43 -840.302 0
0 0 0

1280.2 1521.69 0
1521.69 307.21 0
0 0 0

-108.576 627.773 0
627.773 2151.63 0
0 0 0

-2071.77 1744.79 0
1744.79 523.576 0
0 0 0

-316.467 -1170.18 0
-1170.18 849.129 0
0 0 0

1030.84 417.913 0
417.913 946.037 0
0 0 0

-1454.21 -1894.18 0
-1894.18 1569.34 0
0 0 0

-142.781 2052.43 0
2052.43 -2089 0
0 0 0

-1258.69 86.2951 0
86.2951 -696.628 0
0 0 0

TENSORS velocity_gradient double
-0.656067 -5.74988 0
6.82681 1.04876 0
0 0 0

2.32099 -5.76246 0
6.1583 -0.239843 0
0 0 0

0.361312 -8.16936 0
7.78779 -0.15939 0
0 0 0

1.45142 -7.95005 0
6.43777 -0.00675041 0
0 0 0

2.11816 -5.68195 0
6.234 -0.50115 0
0 0 0

0.37112 -5.46127 0
6.655 0.357375 0
0 0 0

1.23665 -7.04116 0
6.49604 -0.253367 0
0 0 0

-0.454663 -6.1848 0
6.27294 -0.320864 0
0 0 0

0.240893 -5.19768 0
6.34562 -0.21772 0
0 0 0

-0.547073 -5.97988 0
4.29719 -0.940478 0
0 0 0

-0.589918 -5.34617 0
6.25881 -0.233236 0
0 0 0

0.917798 -5.67373 0
5.35796 -0.71878 0
0 0 0

-0.262336 -7.41916 0
4.50338 -1.98272 0
0 0 0

2.09143 -7.5027 0
7.21834 -2.47969 0
0 0 0

1.20649 -7.14201 0
5.56702 -1.78203 0
0 0 0

1.52942 -8.4462 0
7.28513 -2.25358 0
0 0 0

0.852976 -8.08266 0
7.19006 -0.264788 0
0 0 0

0.572486 -8.09306 0
6.67625 0.0320538 0
0 0 0

0.668099 -7.54746 0
7.2591 -0.581256 0
0 0 0

0.7779 -7.07626 0
7.10979 -1.15128 0
0 0 0

0.527601 -7.47906 0
6.73732 -0.660267 0
0 0 0

-0.977464 -7.90093 0
6.0669 -1.09419 0
0 0 0

1.05761 -7.80448 0
7.07576 -1.54269 0
0 0 0

0.218663 -8.70425 0
5.74657 -1.68591 0
0 0 0

-0.956524 -9.93772 0
5.97433 -0.663116 0
0 0 0

1.42708 -10.5785 0
6.51135 -0.480278 0
0 0 0

0.106448 -9.71759 0
5.08095 -0.906105 0
0 0 0

0.836371 -10.5326 0
6.79471 -0.388379 0
0 0 0

1.36016 -10.2374 0
6.76048 -1.75028 0
0 0 0

0.678318 -9.76089 0
6.17325 -2.35269 0
0 0 0

1.00712 -10.3139 0
8.07489 -1.46537 0
0 0 0

0.361918 -9.84157 0
6.69503 -2.03141 0
0 0 0

-0.0849528 -7.70752 0
7.87171 -0.451044 0
0 0 0

0.476385 -7.07063 0
7.76192 -1.06601 0
0 0 0

-0.483172 -12.917 0
8.33875 0.0554814 0
0 0 0

-0.472703 -12.9671 0
8.40187 -0.246613 0
0 0 0

1.77801 -8.70046 0
7.45113 -1.31705 0
0 0 0

1.44868 -9.98401 0
6.67335 -1.48495 0
0 0 0

1.11168 -12.2823 0
7.94113 -0.694636 0
0 0 0

0.907356 -11.2521 0
8.0448 -1.21738 0
0 0 0

0.677199 -10.1412 0
4.42389 -1.42057 0
0 0 0

0.573748 -9.34752 0
5.05181 -1.4438 0
0 0 0

-0.182561 -10.345 0
4.45011 -1.41435 0
0 0 0

-0.387021 -9.5056 0
4.45634 -1.43995 0
0 0 0

1.18415 -9.4628 0
8.42631 -1.42114 0
0 0 0

1.06272 -9.81936 0
8.23919 -1.41875 0
0 0 0

1.57078 -9.369 0
8.38985 -1.42998 0
0 0 0

1.5604 -9.04701 0
8.45126 -1.69903 0
0 0 0

-0.434678 -12.9042 0
8.63114 0.132806 0
0 0 0

-0.42381 -12.9545 0
8.69666 -0.170637 0
0 0 0

-0.212175 -8.19676 0
8.38257 -0.393099 0
0 0 0

0.197529 -9.35523 0
8.58227 0.0101519 0
0 0 0

0.0937246 -12.109 0
8.42265 -0.41155 0
0 0 0

-0.163589 -9.68117 0
8.44453 0.0724311 0
0 0 0

-0.916341 -9.89503 0
8.29413 0.410323 0
0 0 0

-1.32703 -8.76228 0
8.19577 0.746437 0
0 0 0

-0.7043 -8.03373 0
4.73412 0.605233 0
0 0 0

-0.574603 -8.59458 0
4.9705 -0.420268 0
0 0 0

-0.358475 -7.97054 0
6.16938 0.783772 0
0 0 0

0.00577737 -8.45547 0
6.02122 -0.168421 0
0 0 0

1.17864 -8.7122 0
8.88205 -1.3511 0
0 0 0

1.00333 -7.98716 0
9.05446 -2.06412 0
0 0 0

0.360388 -8.79379 0
8.70603 -1.16174 0
0 0 0

0.395331 -7.25997 0
9.31531 -2.65029 0
0 0 0

SCALARS active double 1
LOOKUP_TABLE default
1
1
1
1
1
1
1
1
1
1
1
1
1
1
1
1
1
1
1
1
1
1
1
1
1
1
1
1
1
1
1
1
1
1
1
1
1
1
1
1
1
1
1
1
1
1
1
1
1
1
1
1
1
1
1
1
1
1
1
1
1
1
1
1
SCALARS extent double 1
LOOKUP_TABLE default
0.0125
0.0125
0.0125
0.0125
0.0125
0.0125
0.0125
0.0125
0.0125
0.0125
0.0125
0.0125
0.0125
0.0125
0.0125
0.0125
0.0125
0.0125
0.0125
0.0125
0.0125
0.0125
0.0125
0.0125
0.0125
0.0125
0.0125
0.0125
0.0125
0.0125
0.0125
0.0125
0.0125
0.0125
0.0125
0.0125
0.0125
0.0125
0.0125
0.0125
0.0125
0.0125
0.0125
0.0125
0.0125
0.0125
0.0125
0.0125
0.0125
0.0125
0.0125
0.0125
0.0125
0.0125
0.0125
0.0125
0.0125
0.0125
0.0125
0.0125
0.0125
0.0125
0.0125
0.0125
SCALARS pressure double 1
LOOKUP_TABLE default
-1811.55
-1746.12
-608.512
674.408
-680.674
603.855
719.277
-295.43
-898.79
-591.789
242.126
-729.053
-871.182
-910.453
-2110.52
-995.268
4600.2
-832.279
772.334
2237.02
2632.9
-420.44
-750.21
-4643.59
524.208
-1884.39
-3084.5
-931.998
2016.74
-430.74
565.751
237.103
2019.64
-1627.14
-200.269
511.991
1509.98
483.104
1306.69
-2912.98
2387.1
-1144.35
-3147.02
543.165
-3481.45
470.111
-724.096
-257.548
1969.55
-1830.93
577.651
-223.218
650.148
-1386.36
-1276.23
801.346
-793.705
-1021.53
774.097
-266.331
-988.437
-57.5661
1115.89
977.658
SCALARS density double 1
LOOKUP_TABLE default
981.336
982.004
993.691
1007.04
992.946
1006.3
1007.51
996.932
990.696
993.864
1002.52
992.447
990.981
990.576
978.29
989.703
1049
991.382
1008.06
1023.54
1027.76
995.637
992.228
952.854
1005.47
980.593
968.43
990.354
1021.2
995.53
1005.9
1002.47
1021.23
983.22
997.919
1005.34
1015.83
1005.04
1013.68
970.159
1025.14
988.169
967.801
1005.66
964.441
1004.9
992.498
997.325
1020.69
981.138
1006.03
997.681
1006.78
985.685
986.815
1008.37
991.779
989.432
1008.08
997.234
989.773
999.401
1011.67
1010.22
