# vtk DataFile Version 3.0
Frame: 31, Time: 0.527
ASCII
DATASET UNSTRUCTURED_GRID
POINTS 64 double
0.160215 0.50087 0 
0.157836 0.476346 0 
0.135838 0.503974 0 
0.133821 0.479541 0 
0.154086 0.450946 0 
0.151362 0.425321 0 
0.129732 0.454512 0 
0.126485 0.429253 0 
0.146727 0.401266 0 
0.144668 0.375927 0 
0.122329 0.403875 0 
0.120151 0.377946 0 
0.143273 0.351377 0 
0.139015 0.324646 0 
0.117704 0.353922 0 
0.11536 0.327554 0 
0.111598 0.507948 0 
0.107698 0.482923 0 
0.0864428 0.511074 0 
0.0834331 0.486172 0 
0.104417 0.458178 0 
0.100767 0.432681 0 
0.0794494 0.46097 0 
0.0769 0.435755 0 
0.0977519 0.408116 0 
0.0952446 0.382439 0 
0.072982 0.410214 0 
0.0698896 0.385519 0 
0.0915703 0.357569 0 
0.0883722 0.332402 0 
0.0660323 0.359957 0 
0.0641738 0.336057 0 
0.0612286 0.514786 0 
0.0582933 0.48926 0 
0.036364 0.517504 0 
0.0330801 0.492008 0 
0.05445 0.463971 0 
0.0516923 0.438503 0 
0.0298088 0.467405 0 
0.0265374 0.441837 0 
0.0488399 0.413703 0 
0.0450146 0.38919 0 
0.0237339 0.416746 0 
0.0199512 0.39243 0 
0.0416734 0.364496 0 
0.0400643 0.339528 0 
0.0168294 0.36666 0 
0.0145278 0.341632 0 
0.0110156 0.520676 0 
0.00903192 0.495525 0 
0.986165 0.52322 0 
0.983481 0.497333 0 
0.00478811 0.470459 0 
0.00198791 0.44478 0 
0.978945 0.472639 0 
0.977177 0.44711 0 
0.998756 0.420169 0 
0.995768 0.39597 0 
0.973237 0.423066 0 
0.969795 0.398667 0 
0.992232 0.370428 0 
0.989941 0.344542 0 
0.966101 0.374423 0 
0.963682 0.34954 0 
CELLS 64 128
1 0
1 1
1 2
1 3
1 4
1 5
1 6
1 7
1 8
1 9
1 10
1 11
1 12
1 13
1 14
1 15
1 16
1 17
1 18
1 19
1 20
1 21
1 22
1 23
1 24
1 25
1 26
1 27
1 28
1 29
1 30
1 31
1 32
1 33
1 34
1 35
1 36
1 37
1 38
1 39
1 40
1 41
1 42
1 43
1 44
1 45
1 46
1 47
1 48
1 49
1 50
1 51
1 52
1 53
1 54
1 55
1 56
1 57
1 58
1 59
1 60
1 61
1 62
1 63
CELL_TYPES 64
1
1
1
1
1
1
1
1
1
1
1
1
1
1
1
1
1
1
1
1
1
1
1
1
1
1
1
1
1
1
1
1
1
1
1
1
1
1
1
1
1
1
1
1
1
1
1
1
1
1
1
1
1
1
1
1
1
1
1
1
1
1
1
1
POINT_DATA 64
VECTORS displacement double
-0.0522852 0.28837 0 
-0.0546639 0.238846 0 
-0.101662 0.291474 0 
-0.103679 0.242041 0 
-0.0584142 0.188446 0 
-0.0611382 0.137821 0 
-0.107768 0.192012 0 
-0.111015 0.141753 0 
-0.0657733 0.0887661 0 
-0.0678317 0.0384273 0 
-0.115171 0.0913746 0 
-0.117349 0.0404456 0 
-0.0692267 -0.0111229 0 
-0.0734853 -0.0628541 0 
-0.119796 -0.00857767 0 
-0.12214 -0.0599455 0 
-0.150902 0.295448 0 
-0.154802 0.245423 0 
-0.201057 0.298574 0 
-0.204067 0.248672 0 
-0.158083 0.195678 0 
-0.161733 0.145181 0 
-0.208051 0.19847 0 
-0.2106 0.148255 0 
-0.164748 0.095616 0 
-0.167255 0.0449387 0 
-0.214518 0.0977138 0 
-0.21761 0.0480189 0 
-0.17093 -0.00493122 0 
-0.174128 -0.055098 0 
-0.221468 -0.00254334 0 
-0.223326 -0.0514426 0 
-0.251271 0.302286 0 
-0.254207 0.25176 0 
-0.301136 0.305004 0 
-0.30442 0.254508 0 
-0.25805 0.201471 0 
-0.260808 0.151003 0 
-0.307691 0.204905 0 
-0.310963 0.154337 0 
-0.26366 0.101203 0 
-0.267485 0.0516896 0 
-0.313766 0.104246 0 
-0.317549 0.05493 0 
-0.270827 0.00199559 0 
-0.272436 -0.0479715 0 
-0.320671 0.00416019 0 
-0.322972 -0.0458685 0 
-0.351484 0.308176 0 
-0.353468 0.258025 0 
-0.401335 0.31072 0 
-0.404019 0.259833 0 
-0.357712 0.207959 0 
-0.360512 0.15728 0 
-0.408555 0.210139 0 
-0.410323 0.15961 0 
-0.363744 0.107669 0 
-0.366732 0.0584695 0 
-0.414263 0.110566 0 
-0.417705 0.061167 0 
-0.370268 0.00792847 0 
-0.372559 -0.0429579 0 
-0.421399 0.0119228 0 
-0.423818 -0.0379597 0 
VECTORS velocity double
0.0576214 0.932878 0 
0.0449476 0.662031 0 
-0.0811954 0.494886 0 
-0.0519379 0.377291 0 
0.371072 1.02636 0 
0.726503 0.387175 0 
0.41137 0.287833 0 
0.336157 0.345071 0 
0.441209 0.901352 0 
0.517914 0.469877 0 
0.161145 0.456706 0 
0.229101 0.273732 0 
0.492084 0.755165 0 
1.0249 0.604008 0 
0.406733 0.37896 0 
1.25783 -0.0166783 0 
-0.0529411 0.435964 0 
0.457394 0.389379 0 
-0.443253 0.305812 0 
0.230627 0.117717 0 
0.377284 0.401734 0 
0.526949 0.243275 0 
0.160031 0.230275 0 
0.476979 0.181458 0 
0.485576 0.407017 0 
0.465003 -0.142417 0 
0.791535 0.627063 0 
0.471716 0.199661 0 
0.604544 0.282487 0 
0.795075 0.390799 0 
0.511699 0.295487 0 
0.744015 0.202958 0 
-0.140707 0.27912 0 
0.282972 -0.0638168 0 
-0.19036 -0.309991 0 
0.125852 -0.174738 0 
0.321427 -0.0767242 0 
0.48125 -0.187775 0 
-0.0265949 0.0114598 0 
0.281255 0.041293 0 
0.576212 0.0885764 0 
0.362664 -0.250046 0 
0.497083 -0.0560011 0 
0.256394 -0.372494 0 
0.644388 -0.0601784 0 
1.08873 -0.253932 0 
0.301323 -0.0164607 0 
0.801553 -0.0442473 0 
-0.138666 0.0155083 0 
0.388327 -0.149393 0 
-0.2666 -0.559679 0 
0.282985 -0.309548 0 
-0.0906747 -0.260368 0 
0.350853 -0.275473 0 
0.0931908 -0.681451 0 
0.30408 -0.495909 0 
0.761932 -0.0681877 0 
0.533734 -0.193015 0 
0.391569 -0.0640868 0 
0.300648 -0.526168 0 
0.48486 0.0971573 0 
0.944028 -0.280145 0 
0.491417 -0.441298 0 
0.712257 -0.307466 0 
SCALARS mass double 1
LOOKUP_TABLE default
0.625
0.625
0.625
0.625
0.625
0.625
0.625
0.625
0.625
0.625
0.625
0.625
0.625
0.625
0.625
0.625
0.625
0.625
0.625
0.625
0.625
0.625
0.625
0.625
0.625
0.625
0.625
0.625
0.625
0.625
0.625
0.625
0.625
0.625
0.625
0.625
0.625
0.625
0.625
0.625
0.625
0.625
0.625
0.625
0.625
0.625
0.625
0.625
0.625
0.625
0.625
0.625
0.625
0.625
0.625
0.625
0.625
0.625
0.625
0.625
0.625
0.625
0.625
0.625
SCALARS volume double 1
LOOKUP_TABLE default
0.000630313
0.000623532
0.000614758
0.000616618
0.000627896
0.000606414
0.000642261
0.000606701
0.000624992
0.000608811
0.000650701
0.000613998
0.000634388
0.000613247
0.000640876
0.00064445
0.000639211
0.000605151
0.000622345
0.000628384
0.000640924
0.000627993
0.000631175
0.00061896
0.0006168
0.000622979
0.000609082
0.00064041
0.000636689
0.000604839
0.000643152
0.000622257
0.000628345
0.000638937
0.000630765
0.000625989
0.000607533
0.000647449
0.00063168
0.000616084
0.000639596
0.000601396
0.000645435
0.0006108
0.000621534
0.00065998
0.000647048
0.000613214
0.00061939
0.000620611
0.000628854
0.000618652
0.000637828
0.000611956
0.000623351
0.000624946
0.000627142
0.000617537
0.00062575
0.000616867
0.000630316
0.000643415
0.000626592
0.000622268
VECTORS momentum double
0.0360134 0.583049 0 
0.0280923 0.413769 0 
-0.0507471 0.309304 0 
-0.0324612 0.235807 0 
0.23192 0.641472 0 
0.454064 0.241984 0 
0.257106 0.179895 0 
0.210098 0.215669 0 
0.275756 0.563345 0 
0.323696 0.293673 0 
0.100716 0.285441 0 
0.143188 0.171083 0 
0.307553 0.471978 0 
0.640564 0.377505 0 
0.254208 0.23685 0 
0.786144 -0.0104239 0 
-0.0330882 0.272478 0 
0.285872 0.243362 0 
-0.277033 0.191133 0 
0.144142 0.0735731 0 
0.235802 0.251084 0 
0.329343 0.152047 0 
0.100019 0.143922 0 
0.298112 0.113411 0 
0.303485 0.254385 0 
0.290627 -0.0890104 0 
0.494709 0.391915 0 
0.294823 0.124788 0 
0.37784 0.176554 0 
0.496922 0.244249 0 
0.319812 0.184679 0 
0.465009 0.126849 0 
-0.0879421 0.17445 0 
0.176858 -0.0398855 0 
-0.118975 -0.193744 0 
0.0786575 -0.109212 0 
0.200892 -0.0479526 0 
0.300781 -0.11736 0 
-0.0166218 0.00716238 0 
0.175784 0.0258081 0 
0.360132 0.0553602 0 
0.226665 -0.156279 0 
0.310677 -0.0350007 0 
0.160246 -0.232809 0 
0.402743 -0.0376115 0 
0.680455 -0.158707 0 
0.188327 -0.010288 0 
0.50097 -0.0276546 0 
-0.0866664 0.00969269 0 
0.242704 -0.0933706 0 
-0.166625 -0.349799 0 
0.176866 -0.193468 0 
-0.0566717 -0.16273 0 
0.219283 -0.172171 0 
0.0582443 -0.425907 0 
0.19005 -0.309943 0 
0.476207 -0.0426173 0 
0.333584 -0.120634 0 
0.244731 -0.0400542 0 
0.187905 -0.328855 0 
0.303037 0.0607233 0 
0.590017 -0.175091 0 
0.307136 -0.275811 0 
0.445161 -0.192166 0 
VECTORS body_force double
0 -9.81 0 
0 -9.81 0 
0 -9.81 0 
0 -9.81 0 
0 -9.81 0 
0 -9.81 0 
0 -9.81 0 
0 -9.81 0 
0 -9.81 0 
0 -9.81 0 
0 -9.81 0 
0 -9.81 0 
0 -9.81 0 
0 -9.81 0 
0 -9.81 0 
0 -9.81 0 
0 -9.81 0 
0 -9.81 0 
0 -9.81 0 
0 -9.81 0 
0 -9.81 0 
0 -9.81 0 
0 -9.81 0 
0 -9.81 0 
0 -9.81 0 
0 -9.81 0 
0 -9.81 0 
0 -9.81 0 
0 -9.81 0 
0 -9.81 0 
0 -9.81 0 
0 -9.81 0 
0 -9.81 0 
0 -9.81 0 
0 -9.81 0 
0 -9.81 0 
0 -9.81 0 
0 -9.81 0 
0 -9.81 0 
0 -9.81 0 
0 -9.81 0 
0 -9.81 0 
0 -9.81 0 
0 -9.81 0 
0 -9.81 0 
0 -9.81 0 
0 -9.81 0 
0 -9.81 0 
0 -9.81 0 
0 -9.81 0 
0 -9.81 0 
0 -9.81 0 
0 -9.81 0 
0 -9.81 0 
0 -9.81 0 
0 -9.81 0 
0 -9.81 0 
0 -9.81 0 
0 -9.81 0 
0 -9.81 0 
0 -9.81 0 
0 -9.81 0 
0 -9.81 0 
0 -9.81 0 
TENSORS cauchy_stress double
901.842 77.0173 0
77.0173 725.892 0
0 0 0

-600 -346.539 0
-346.539 147.877 0
0 0 0

-2470.99 946.884 0
946.884 -706.438 0
0 0 0

1243.32 -1189.02 0
-1189.02 -3839.93 0
0 0 0

632.55 613.613 0
613.613 256.435 0
0 0 0

-554.48 -871.961 0
-871.961 -5251.19 0
0 0 0

1550.59 3277.51 0
3277.51 3688.57 0
0 0 0

-1463.83 -33.2567 0
-33.2567 -4250.65 0
0 0 0

-2006.67 624.045 0
624.045 2004.11 0
0 0 0

-1209.74 3389.81 0
3389.81 -3837.15 0
0 0 0

35.4046 -3725.26 0
-3725.26 7714.44 0
0 0 0

-1111.78 462.935 0
462.935 -2303.63 0
0 0 0

766.183 -2479.26 0
-2479.26 2100.84 0
0 0 0

-4127.56 -1471 0
-1471 476.709 0
0 0 0

3993.51 -1096.56 0
-1096.56 830.498 0
0 0 0

3723.61 172.003 0
172.003 2169.77 0
0 0 0

3648.04 1011.49 0
1011.49 675.723 0
0 0 0

-4484.48 -1700.36 0
-1700.36 -1721.91 0
0 0 0

-851.312 -148.56 0
-148.56 32.5465 0
0 0 0

961.441 -836.639 0
-836.639 76.9858 0
0 0 0

2363.16 489.347 0
489.347 2475.08 0
0 0 0

1243.43 1196.33 0
1196.33 -324.569 0
0 0 0

1747.84 1815.76 0
1815.76 142.952 0
0 0 0

-3122.76 458.468 0
458.468 1255.33 0
0 0 0

-2916.98 788.249 0
788.249 377.173 0
0 0 0

-936.818 -1111.98 0
-1111.98 313.949 0
0 0 0

-3184.02 -1322.27 0
-1322.27 -1777.36 0
0 0 0

2712.97 1493.91 0
1493.91 1971.14 0
0 0 0

2904.74 -176.495 0
-176.495 658.653 0
0 0 0

-2124.39 740.16 0
740.16 -4181.17 0
0 0 0

1619.6 -2388.58 0
-2388.58 3885.94 0
0 0 0

2852.91 -533.822 0
-533.822 -3698.67 0
0 0 0

471.703 609.802 0
609.802 554.759 0
0 0 0

1568.28 144.113 0
144.113 2673.04 0
0 0 0

721.123 -54.3648 0
-54.3648 1044.66 0
0 0 0

81.8846 -955.334 0
-955.334 222.095 0
0 0 0

-3916.23 2735.06 0
2735.06 -1534.74 0
0 0 0

4374.74 -2530.05 0
-2530.05 2411.4 0
0 0 0

1095.53 676.456 0
676.456 948.865 0
0 0 0

-2022.28 -527.395 0
-527.395 -740.783 0
0 0 0

2345.86 3904.23 0
3904.23 2093.69 0
0 0 0

-635.207 -1243.39 0
-1243.39 -6768.29 0
0 0 0

2420.7 -566.634 0
-566.634 3766.53 0
0 0 0

-1412.99 164.169 0
164.169 -3006.49 0
0 0 0

-1358.91 614.795 0
614.795 289.521 0
0 0 0

2660.79 497.745 0
497.745 7811.85 0
0 0 0

-101.74 -691.974 0
-691.974 6768.85 0
0 0 0

2162.93 -1333.74 0
-1333.74 -5824.16 0
0 0 0

-72.9447 467.438 0
467.438 -1660.85 0
0 0 0

-2372.38 838.573 0
838.573 1017.07 0
0 0 0

473.683 367.37 0
367.37 708.393 0
0 0 0

-237.363 946.099 0
946.099 -1725.85 0
0 0 0

2785.43 497.031 0
497.031 1121.73 0
0 0 0

-2273.54 275.49 0
275.49 -1782.44 0
0 0 0

-1048.61 853.416 0
853.416 540.547 0
0 0 0

739.118 1263.33 0
1263.33 -755.606 0
0 0 0

560.306 -67.6163 0
-67.6163 97.5388 0
0 0 0

360.86 2262.46 0
2262.46 -2671 0
0 0 0

1097.46 -639.024 0
-639.024 -866.675 0
0 0 0

-932.844 608.325 0
608.325 -1585.9 0
0 0 0

480.88 -128.211 0
-128.211 1148.04 0
0 0 0

1955.92 -17.8428 0
-17.8428 3628.39 0
0 0 0

708.482 -1283.85 0
-1283.85 -219.182 0
0 0 0

786.507 -86.356 0
-86.356 -1628.89 0
0 0 0

TENSORS velocity_gradient double
-0.145644 -4.50996 0
4.6486 0.0484959 0
0 0 0

-0.492029 -5.80292 0
4.7151 0.845569 0
0 0 0

0.138082 -4.85482 0
5.9853 -0.0519703 0
0 0 0

-0.491538 -6.21442 0
5.96299 0.746409 0
0 0 0

-0.408336 -4.35496 0
4.709 0.836885 0
0 0 0

1.36803 -2.45953 0
3.56472 0.672467 0
0 0 0

-0.978226 -5.47881 0
5.78758 0.621779 0
0 0 0

-0.718687 -1.56169 0
5.63203 0.160146 0
0 0 0

0.966022 -2.73396 0
4.25776 0.642555 0
0 0 0

0.0382047 -3.5816 0
4.79296 0.858688 0
0 0 0

-0.276105 -1.94411 0
5.46451 0.204459 0
0 0 0

-0.146127 -3.54036 0
5.05213 0.404419 0
0 0 0

-0.114367 -5.28296 0
4.77465 0.449562 0
0 0 0

-0.234686 -7.56857 0
6.08638 0.21581 0
0 0 0

-0.109622 -4.43039 0
4.71962 0.598457 0
0 0 0

-0.217924 -7.69859 0
5.905 1.6226 0
0 0 0

0.287931 -5.54541 0
5.93032 0.291645 0
0 0 0

-0.416509 -6.76861 0
5.98798 0.561802 0
0 0 0

-0.370245 -5.73943 0
6.81604 0.435748 0
0 0 0

0.210453 -6.54167 0
6.45216 0.20265 0
0 0 0

-0.629068 -6.79382 0
5.83476 0.525255 0
0 0 0

-0.26423 -1.2643 0
5.54364 -0.0373623 0
0 0 0

0.793482 -6.44566 0
5.99124 0.126751 0
0 0 0

0.451421 -2.04804 0
5.48846 -0.492101 0
0 0 0

-0.58769 -1.29894 0
5.07379 -0.0786714 0
0 0 0

-1.06695 -3.54643 0
5.00189 0.138213 0
0 0 0

-0.59777 -2.21128 0
4.94783 -0.576217 0
0 0 0

-1.12062 -3.73201 0
4.94449 0.485899 0
0 0 0

-1.33094 -3.57004 0
5.34657 0.17623 0
0 0 0

0.334136 -6.58216 0
3.77569 1.32368 0
0 0 0

-1.31202 -3.76169 0
5.31041 0.542627 0
0 0 0

-0.0282917 -4.24593 0
4.12882 -0.952641 0
0 0 0

-0.461831 -5.145 0
6.85434 0.187135 0
0 0 0

0.135157 -5.95995 0
6.51169 -0.257227 0
0 0 0

-0.489205 -5.00329 0
5.1504 0.118116 0
0 0 0

-0.380916 -5.19179 0
5.13051 -0.567092 0
0 0 0

0.696779 -5.85635 0
5.85388 -0.321132 0
0 0 0

0.739479 -2.99261 0
5.25149 -0.960451 0
0 0 0

0.455417 -5.07629 0
4.89916 -0.599042 0
0 0 0

1.01483 -3.24296 0
4.7761 -0.9305 0
0 0 0

0.392024 -3.05923 0
4.95997 -0.983879 0
0 0 0

0.63778 -3.91944 0
4.59259 0.530909 0
0 0 0

0.903242 -3.25577 0
4.9056 -0.91563 0
0 0 0

0.771172 -4.11092 0
4.70369 -0.416437 0
0 0 0

0.556731 -3.94568 0
3.62137 0.417583 0
0 0 0

0.213413 -3.18301 0
3.66668 -1.60299 0
0 0 0

0.573992 -4.13561 0
3.70849 -0.541022 0
0 0 0

0.262153 -3.74925 0
3.53973 -0.128103 0
0 0 0

-0.459167 -5.23383 0
5.14021 0.196377 0
0 0 0

-0.461633 -4.51511 0
5.15226 -0.633734 0
0 0 0

0.132405 -5.45341 0
4.07707 -0.276348 0
0 0 0

-0.0682154 -4.54843 0
3.24315 -0.828718 0
0 0 0

0.278778 -4.25753 0
4.66366 -0.83409 0
0 0 0

0.587012 -3.39355 0
4.02723 -0.824013 0
0 0 0

-0.160233 -4.14078 0
2.95798 -1.07648 0
0 0 0

-0.15444 -3.31012 0
2.75198 -0.911859 0
0 0 0

0.509959 -3.28184 0
3.50213 -0.81429 0
0 0 0

0.558546 -4.12554 0
3.03874 -0.95575 0
0 0 0

0.219307 -2.89581 0
2.69518 -0.843769 0
0 0 0

0.521342 -3.92623 0
2.75609 -0.55535 0
0 0 0

0.195191 -4.37993 0
3.44129 -0.943923 0
0 0 0

-0.00806991 -3.93488 0
3.70174 0.0701633 0
0 0 0

0.254018 -4.75586 0
3.33176 -0.243999 0
0 0 0

-0.00966592 -4.12765 0
3.75689 -0.662138 0
0 0 0

SCALARS active double 1
LOOKUP_TABLE default
1
1
1
1
1
1
1
1
1
1
1
1
1
1
1
1
1
1
1
1
1
1
1
1
1
1
1
1
1
1
1
1
1
1
1
1
1
1
1
1
1
1
1
1
1
1
1
1
1
1
1
1
1
1
1
1
1
1
1
1
1
1
1
1
SCALARS extent double 1
LOOKUP_TABLE default
0.0125
0.0125
0.0125
0.0125
0.0125
0.0125
0.0125
0.0125
0.0125
0.0125
0.0125
0.0125
0.0125
0.0125
0.0125
0.0125
0.0125
0.0125
0.0125
0.0125
0.0125
0.0125
0.0125
0.0125
0.0125
0.0125
0.0125
0.0125
0.0125
0.0125
0.0125
0.0125
0.0125
0.0125
0.0125
0.0125
0.0125
0.0125
0.0125
0.0125
0.0125
0.0125
0.0125
0.0125
0.0125
0.0125
0.0125
0.0125
0.0125
0.0125
0.0125
0.0125
0.0125
0.0125
0.0125
0.0125
0.0125
0.0125
0.0125
0.0125
0.0125
0.0125
0.0125
0.0125
SCALARS pressure double 1
LOOKUP_TABLE default
-813.867
226.062
1588.72
1298.3
-444.492
2902.83
-2619.58
2857.24
1.27796
2523.44
-3874.92
1707.7
-1433.51
1825.43
-2412
-2946.69
-2161.88
3103.19
409.383
-519.213
-2419.12
-459.43
-945.393
933.712
1269.9
311.435
2480.69
-2342.05
-1781.69
3152.78
-2752.77
422.88
-513.231
-2120.66
-882.889
-151.99
2725.49
-3393.07
-1022.2
1381.53
-2219.78
3701.75
-3093.61
2209.74
534.697
-5236.32
-3333.55
1830.61
866.9
677.656
-591.038
981.607
-1953.58
2027.99
254.034
8.24404
-328.923
1155.07
-115.392
1259.37
-814.46
-2792.16
-244.65
421.194
SCALARS density double 1
LOOKUP_TABLE default
991.572
1002.35
1016.66
1013.59
995.388
1030.65
973.124
1030.16
1000.01
1026.59
960.502
1017.92
985.202
1019.17
975.227
969.819
977.767
1032.8
1004.27
994.615
975.155
995.233
990.216
1009.76
1013.29
1003.24
1026.13
975.937
981.641
1033.33
971.777
1004.41
994.677
978.187
990.86
998.421
1028.75
965.327
989.425
1014.47
977.179
1039.25
968.338
1023.25
1005.58
946.999
965.925
1019.22
1009.06
1007.07
993.872
1010.26
979.888
1021.32
1002.65
1000.09
996.585
1012.09
998.801
1013.18
991.565
971.379
997.459
1004.39
