# vtk DataFile Version 3.0
Frame: 23, Time: 0.391
ASCII
DATASET UNSTRUCTURED_GRID
POINTS 64 double
0.140817 0.327355 0 
0.12537 0.308594 0 
0.122971 0.34457 0 
0.107261 0.325887 0 
0.107506 0.290294 0 
0.0923955 0.270914 0 
0.0900522 0.308495 0 
0.0741986 0.290679 0 
0.0750491 0.25416 0 
0.0581019 0.236292 0 
0.0575203 0.272803 0 
0.0409613 0.254038 0 
0.0418632 0.217712 0 
0.0218143 0.2002 0 
0.0240701 0.237138 0 
0.00586926 0.218158 0 
0.106226 0.362693 0 
0.0880263 0.344955 0 
0.0880567 0.380989 0 
0.0706111 0.363679 0 
0.0718379 0.327457 0 
0.055124 0.30988 0 
0.053608 0.346267 0 
0.0380856 0.328399 0 
0.0401225 0.292108 0 
0.0246966 0.274207 0 
0.021404 0.311752 0 
0.00667334 0.294739 0 
0.00835011 0.257535 0 
0.992528 0.241058 0 
0.991552 0.277715 0 
0.978921 0.262402 0 
0.0696012 0.39979 0 
0.0520011 0.382211 0 
0.0510975 0.417702 0 
0.03324 0.4003 0 
0.034755 0.36547 0 
0.0191756 0.347986 0 
0.0160671 0.383928 0 
0.999202 0.366686 0 
0.00416459 0.331845 0 
0.98894 0.315303 0 
0.98409 0.349716 0 
0.968903 0.333351 0 
0.973981 0.297812 0 
0.960859 0.282483 0 
0.953134 0.315858 0 
0.939327 0.300325 0 
0.0332639 0.436368 0 
0.0159349 0.418419 0 
0.0158384 0.454605 0 
0.997587 0.436902 0 
0.99803 0.402235 0 
0.980423 0.384867 0 
0.979322 0.421171 0 
0.962404 0.403141 0 
0.964767 0.36812 0 
0.949514 0.351041 0 
0.945148 0.386454 0 
0.929511 0.369457 0 
0.932888 0.333968 0 
0.918608 0.317062 0 
0.913237 0.35364 0 
0.898046 0.336498 0 
CELLS 64 128
1 0
1 1
1 2
1 3
1 4
1 5
1 6
1 7
1 8
1 9
1 10
1 11
1 12
1 13
1 14
1 15
1 16
1 17
1 18
1 19
1 20
1 21
1 22
1 23
1 24
1 25
1 26
1 27
1 28
1 29
1 30
1 31
1 32
1 33
1 34
1 35
1 36
1 37
1 38
1 39
1 40
1 41
1 42
1 43
1 44
1 45
1 46
1 47
1 48
1 49
1 50
1 51
1 52
1 53
1 54
1 55
1 56
1 57
1 58
1 59
1 60
1 61
1 62
1 63
CELL_TYPES 64
1
1
1
1
1
1
1
1
1
1
1
1
1
1
1
1
1
1
1
1
1
1
1
1
1
1
1
1
1
1
1
1
1
1
1
1
1
1
1
1
1
1
1
1
1
1
1
1
1
1
1
1
1
1
1
1
1
1
1
1
1
1
1
1
POINT_DATA 64
VECTORS displacement double
-0.0716829 0.114855 0 
-0.0871303 0.0710936 0 
-0.114529 0.13207 0 
-0.130239 0.0883867 0 
-0.104994 0.027794 0 
-0.120105 -0.0165857 0 
-0.147448 0.0459951 0 
-0.163301 0.00317851 0 
-0.137451 -0.0583401 0 
-0.154398 -0.101208 0 
-0.17998 -0.0396966 0 
-0.196539 -0.0834617 0 
-0.170637 -0.144788 0 
-0.190686 -0.1873 0 
-0.21343 -0.125362 0 
-0.231631 -0.169342 0 
-0.156274 0.150193 0 
-0.174474 0.107455 0 
-0.199443 0.168489 0 
-0.216889 0.126179 0 
-0.190662 0.0649566 0 
-0.207376 0.0223801 0 
-0.233892 0.0837675 0 
-0.249414 0.040899 0 
-0.222378 -0.0203919 0 
-0.237803 -0.0632935 0 
-0.266096 -0.000748242 0 
-0.280827 -0.0427612 0 
-0.25415 -0.104965 0 
-0.269972 -0.146442 0 
-0.295948 -0.0847851 0 
-0.308579 -0.125098 0 
-0.242899 0.18729 0 
-0.260499 0.144711 0 
-0.286402 0.205202 0 
-0.30426 0.1628 0 
-0.277745 0.10297 0 
-0.293324 0.0604857 0 
-0.321433 0.121428 0 
-0.338298 0.0791858 0 
-0.308335 0.0193453 0 
-0.32356 -0.0221975 0 
-0.35341 0.0372155 0 
-0.368597 -0.00414884 0 
-0.338519 -0.0646884 0 
-0.351641 -0.105017 0 
-0.384366 -0.0466417 0 
-0.398173 -0.0871745 0 
-0.329236 0.223868 0 
-0.346565 0.180919 0 
-0.371662 0.242105 0 
-0.389913 0.199402 0 
-0.36447 0.139735 0 
-0.382077 0.097367 0 
-0.408178 0.158671 0 
-0.425096 0.115641 0 
-0.397733 0.0556201 0 
-0.412986 0.0135413 0 
-0.442352 0.0739537 0 
-0.457989 0.0319569 0 
-0.429612 -0.0285318 0 
-0.443892 -0.0704384 0 
-0.474263 -0.00886014 0 
-0.489454 -0.0510023 0 
VECTORS velocity double
-0.415336 1.90219 0 
0.205351 1.35692 0 
-1.09662 1.39978 0 
-0.652189 0.884878 0 
0.356546 1.47504 0 
-0.0928331 0.762828 0 
-0.00544792 0.704102 0 
-0.209319 0.782297 0 
0.259604 1.22633 0 
0.575331 0.943578 0 
-0.211158 0.72129 0 
-0.185114 0.609711 0 
0.32958 0.901806 0 
0.432997 0.729915 0 
-0.238848 0.641512 0 
0.225024 0.436539 0 
-0.555268 1.51092 0 
-0.464581 0.984485 0 
-1.24672 1.22897 0 
-0.567933 0.965642 0 
-0.471277 0.914577 0 
-0.156598 0.65112 0 
-0.635847 1.0241 0 
-0.454702 0.647884 0 
0.290166 0.818985 0 
0.10571 0.397624 0 
0.108153 1.01481 0 
-0.119349 0.775088 0 
-0.288692 0.452791 0 
0.290935 0.770375 0 
-0.430736 0.533692 0 
0.298793 0.440353 0 
-1.14922 1.24619 0 
-0.635378 0.694852 0 
-1.45566 1.24915 0 
-0.973519 0.697756 0 
-0.450703 0.920805 0 
-0.431161 0.405808 0 
-0.918427 1.11337 0 
-0.761695 0.580746 0 
-0.230514 0.551503 0 
-0.13158 0.440196 0 
-0.349255 0.551255 0 
-0.227781 0.477813 0 
-0.172166 0.00424999 0 
0.0888968 -0.187809 0 
-0.346499 0.210337 0 
-0.00176435 0.100225 0 
-1.37713 1.07812 0 
-0.904149 0.542549 0 
-1.71121 1.05895 0 
-1.42863 0.451468 0 
-0.886587 1.00853 0 
-0.607224 0.476203 0 
-1.17603 0.685599 0 
-1.13385 0.511596 0 
-0.112079 0.558401 0 
-0.0495436 0.550463 0 
-0.841405 0.593109 0 
-0.660474 0.126888 0 
-0.173334 0.574884 0 
0.611369 0.0108523 0 
-0.761139 0.241395 0 
-0.10822 0.0828434 0 
SCALARS mass double 1
LOOKUP_TABLE default
0.625
0.625
0.625
0.625
0.625
0.625
0.625
0.625
0.625
0.625
0.625
0.625
0.625
0.625
0.625
0.625
0.625
0.625
0.625
0.625
0.625
0.625
0.625
0.625
0.625
0.625
0.625
0.625
0.625
0.625
0.625
0.625
0.625
0.625
0.625
0.625
0.625
0.625
0.625
0.625
0.625
0.625
0.625
0.625
0.625
0.625
0.625
0.625
0.625
0.625
0.625
0.625
0.625
0.625
0.625
0.625
0.625
0.625
0.625
0.625
0.625
0.625
0.625
0.625
SCALARS volume double 1
LOOKUP_TABLE default
0.000623886
0.000617941
0.000628639
0.000621907
0.000620204
0.000599013
0.000630852
0.000600203
0.000622329
0.000616965
0.000639591
0.000587338
0.000649433
0.000620665
0.000641833
0.00063754
0.00064108
0.000628489
0.000629489
0.000637561
0.000615267
0.000622054
0.000624501
0.00061338
0.000622841
0.00059034
0.000601206
0.000626507
0.000599079
0.000463372
0.000573182
0.000479813
0.000626602
0.000631251
0.000631093
0.000618978
0.000606888
0.000626876
0.000617717
0.000612224
0.000599286
0.000592169
0.000600554
0.000606681
0.000598975
0.00052989
0.000630498
0.000512541
0.000624322
0.000613076
0.000629835
0.000609974
0.000626877
0.000601837
0.000612549
0.000620085
0.000613854
0.000627795
0.000604094
0.000608475
0.000607027
0.000598935
0.000602132
0.00059243
VECTORS momentum double
-0.259585 1.18887 0 
0.128344 0.848076 0 
-0.685389 0.874863 0 
-0.407618 0.553049 0 
0.222841 0.9219 0 
-0.0580207 0.476767 0 
-0.00340495 0.440064 0 
-0.130824 0.488935 0 
0.162252 0.766453 0 
0.359582 0.589737 0 
-0.131974 0.450806 0 
-0.115696 0.381069 0 
0.205988 0.563629 0 
0.270623 0.456197 0 
-0.14928 0.400945 0 
0.14064 0.272837 0 
-0.347042 0.944326 0 
-0.290363 0.615303 0 
-0.779203 0.768104 0 
-0.354958 0.603526 0 
-0.294548 0.57161 0 
-0.097874 0.40695 0 
-0.397404 0.640063 0 
-0.284189 0.404927 0 
0.181354 0.511866 0 
0.0660689 0.248515 0 
0.0675956 0.634258 0 
-0.0745929 0.48443 0 
-0.180432 0.282994 0 
0.181835 0.481484 0 
-0.26921 0.333558 0 
0.186745 0.275221 0 
-0.718261 0.778871 0 
-0.397111 0.434283 0 
-0.909786 0.780718 0 
-0.608449 0.436097 0 
-0.281689 0.575503 0 
-0.269476 0.25363 0 
-0.574017 0.695857 0 
-0.47606 0.362966 0 
-0.144071 0.344689 0 
-0.0822373 0.275123 0 
-0.218284 0.344534 0 
-0.142363 0.298633 0 
-0.107604 0.00265624 0 
0.0555605 -0.117381 0 
-0.216562 0.13146 0 
-0.00110272 0.0626404 0 
-0.860707 0.673827 0 
-0.565093 0.339093 0 
-1.06951 0.661845 0 
-0.892895 0.282167 0 
-0.554117 0.630329 0 
-0.379515 0.297627 0 
-0.73502 0.428499 0 
-0.708654 0.319747 0 
-0.0700497 0.349001 0 
-0.0309647 0.344039 0 
-0.525878 0.370693 0 
-0.412797 0.0793048 0 
-0.108334 0.359303 0 
0.382105 0.00678268 0 
-0.475712 0.150872 0 
-0.0676374 0.0517771 0 
VECTORS body_force double
0 -9.81 0 
0 -9.81 0 
0 -9.81 0 
0 -9.81 0 
0 -9.81 0 
0 -9.81 0 
0 -9.81 0 
0 -9.81 0 
0 -9.81 0 
0 -9.81 0 
0 -9.81 0 
0 -9.81 0 
0 -9.81 0 
0 -9.81 0 
0 -9.81 0 
0 -9.81 0 
0 -9.81 0 
0 -9.81 0 
0 -9.81 0 
0 -9.81 0 
0 -9.81 0 
0 -9.81 0 
0 -9.81 0 
0 -9.81 0 
0 -9.81 0 
0 -9.81 0 
0 -9.81 0 
0 -9.81 0 
0 -9.81 0 
0 -9.81 0 
0 -9.81 0 
0 -9.81 0 
0 -9.81 0 
0 -9.81 0 
0 -9.81 0 
0 -9.81 0 
0 -9.81 0 
0 -9.81 0 
0 -9.81 0 
0 -9.81 0 
0 -9.81 0 
0 -9.81 0 
0 -9.81 0 
0 -9.81 0 
0 -9.81 0 
0 -9.81 0 
0 -9.81 0 
0 -9.81 0 
0 -9.81 0 
0 -9.81 0 
0 -9.81 0 
0 -9.81 0 
0 -9.81 0 
0 -9.81 0 
0 -9.81 0 
0 -9.81 0 
0 -9.81 0 
0 -9.81 0 
0 -9.81 0 
0 -9.81 0 
0 -9.81 0 
0 -9.81 0 
0 -9.81 0 
0 -9.81 0 
TENSORS cauchy_stress double
-819.588 -523.429 0
-523.429 476.443 0
0 0 0

-1626.27 -713.439 0
-713.439 -558.063 0
0 0 0

288.498 1310.64 0
1310.64 828.075 0
0 0 0

-1121.75 -5808.02 0
-5808.02 167.774 0
0 0 0

-2055.08 -1911.39 0
-1911.39 573.638 0
0 0 0

-6310.69 -3146.22 0
-3146.22 -1856.3 0
0 0 0

3021.01 -404.281 0
-404.281 -1228.68 0
0 0 0

-8125.45 -7931.73 0
-7931.73 339.994 0
0 0 0

-3489.98 -2528.9 0
-2528.9 2666.36 0
0 0 0

477.787 865.983 0
865.983 -2966.15 0
0 0 0

-4314.34 1560.3 0
1560.3 8752.27 0
0 0 0

-7373.78 -1414.05 0
-1414.05 -4578.4 0
0 0 0

2605.78 -1799.36 0
-1799.36 4768.71 0
0 0 0

-1585.82 -9.53739 0
-9.53739 247.405 0
0 0 0

-1703.06 -2004.07 0
-2004.07 6814.07 0
0 0 0

-2085.9 3014.61 0
3014.61 5906.19 0
0 0 0

2773.53 -937.279 0
-937.279 2111.56 0
0 0 0

-3827.44 -609.029 0
-609.029 4897.96 0
0 0 0

1053.89 -1773.95 0
-1773.95 322.438 0
0 0 0

576.876 -3425.75 0
-3425.75 3249.81 0
0 0 0

-2756.7 -4005.66 0
-4005.66 -261.603 0
0 0 0

-1840.3 -4013.43 0
-4013.43 931.608 0
0 0 0

-2612.88 -5018.54 0
-5018.54 2459.38 0
0 0 0

-4379.75 -2549.05 0
-2549.05 770.628 0
0 0 0

-3293 -4901.53 0
-4901.53 2627.58 0
0 0 0

-11283.4 -5163.93 0
-5163.93 311.621 0
0 0 0

-10211.8 -7361 0
-7361 2747.45 0
0 0 0

-5655.16 -6665.26 0
-6665.26 6118.36 0
0 0 0

-10033.8 -1466.95 0
-1466.95 1888.02 0
0 0 0

-42359.6 -6528.14 0
-6528.14 -15183 0
0 0 0

-16102.4 -7812.17 0
-7812.17 -541.528 0
0 0 0

-33463.8 -16748.7 0
-16748.7 -17373.7 0
0 0 0

2695.19 -2558.12 0
-2558.12 -2202.95 0
0 0 0

1497.68 -1808.53 0
-1808.53 416.224 0
0 0 0

1134.65 -1179.86 0
-1179.86 730.999 0
0 0 0

-1933.17 -2975.4 0
-2975.4 71.2399 0
0 0 0

-2355.03 -3740.84 0
-3740.84 -3300.23 0
0 0 0

-1819.19 -9250.21 0
-9250.21 2395.57 0
0 0 0

1119.48 -3059.03 0
-3059.03 -3373.59 0
0 0 0

-1696.42 -4855.57 0
-4855.57 -2275.4 0
0 0 0

-3130.14 -6822.21 0
-6822.21 -4949.18 0
0 0 0

-7010.54 -8211.36 0
-8211.36 -3366.16 0
0 0 0

-3440.2 -6518.24 0
-6518.24 -4232.64 0
0 0 0

-1468.59 -6403.1 0
-6403.1 -4252.35 0
0 0 0

-5052.66 -6865.63 0
-6865.63 -3126.67 0
0 0 0

-13513.7 -16038.7 0
-16038.7 -18232.8 0
0 0 0

756.741 -6577.18 0
-6577.18 927.479 0
0 0 0

-14152 -13897.1 0
-13897.1 -23996.2 0
0 0 0

470.03 -1184.66 0
-1184.66 -678.785 0
0 0 0

-1866.09 -1208.02 0
-1208.02 -1838.25 0
0 0 0

956.957 -350.44 0
-350.44 525.15 0
0 0 0

-2981.6 -1498.85 0
-1498.85 -1698.24 0
0 0 0

558.025 -3118.9 0
-3118.9 18.5747 0
0 0 0

-4692.31 -3680.78 0
-3680.78 -2570.12 0
0 0 0

-2942.87 -2057.66 0
-2057.66 -926.871 0
0 0 0

-22.3337 -2105.45 0
-2105.45 -1496.03 0
0 0 0

-3382.65 -6091.06 0
-6091.06 -77.7869 0
0 0 0

2748.32 -4691.2 0
-4691.2 -1890.19 0
0 0 0

-2027.52 -2892.46 0
-2892.46 -4515.27 0
0 0 0

-1777.1 -3803.97 0
-3803.97 -3375.99 0
0 0 0

-1026.39 -6592.09 0
-6592.09 -4584.98 0
0 0 0

-2087.76 -8149.89 0
-8149.89 -6104.24 0
0 0 0

-3986.62 -5194.06 0
-5194.06 -3181.55 0
0 0 0

-3240.1 -6395.38 0
-6395.38 -7051.92 0
0 0 0

TENSORS velocity_gradient double
-0.961967 -11.4352 0
9.38534 0.291705 0
0 0 0

-0.689014 -11.2051 0
10.5742 1.29384 0
0 0 0

-1.21681 -11.1758 0
8.27542 1.42164 0
0 0 0

-0.945087 -10.9419 0
9.45886 2.44045 0
0 0 0

0.788724 -4.8899 0
11.7746 -0.739921 0
0 0 0

0.694893 -3.82293 0
5.36149 -0.261771 0
0 0 0

-0.0892402 -10.3751 0
5.64222 2.74048 0
0 0 0

0.407604 -3.56101 0
5.45169 -0.344007 0
0 0 0

0.957795 -4.15641 0
5.14267 -0.0122582 0
0 0 0

1.40653 -5.52457 0
3.81204 -0.674715 0
0 0 0

0.664864 -3.31909 0
5.37091 -0.419965 0
0 0 0

0.737598 -3.6093 0
4.24539 -0.641371 0
0 0 0

0.936484 -5.25474 0
4.57986 -1.39115 0
0 0 0

1.11622 -3.73571 0
4.40138 -0.863389 0
0 0 0

0.848035 -5.1747 0
4.38651 -1.21617 0
0 0 0

1.25342 -5.02056 0
4.62898 -1.04309 0
0 0 0

-0.250561 -8.11545 0
6.92022 0.705582 0
0 0 0

-1.7777 -10.2832 0
6.33829 2.69594 0
0 0 0

-1.84532 -8.84429 0
5.91523 1.46686 0
0 0 0

-1.97224 -8.97458 0
6.22767 1.78761 0
0 0 0

-0.973941 -9.53612 0
6.00745 2.39413 0
0 0 0

-0.167622 -8.75027 0
5.56508 2.06735 0
0 0 0

-1.82423 -8.74839 0
6.12707 2.04961 0
0 0 0

-1.11021 -7.95359 0
4.70585 1.68297 0
0 0 0

0.303445 -3.09583 0
4.0647 -0.409698 0
0 0 0

0.511763 -2.9152 0
4.14566 -0.339498 0
0 0 0

-0.324428 -7.15491 0
4.29887 1.26931 0
0 0 0

0.263682 -2.83041 0
4.05821 -0.21927 0
0 0 0

0.705642 -2.72394 0
4.221 -0.265169 0
0 0 0

2.0939 -3.13372 0
6.2071 -1.11414 0
0 0 0

-0.435155 -2.59603 0
6.91591 -0.393485 0
0 0 0

-0.379838 -2.55001 0
6.61442 -0.644337 0
0 0 0

-1.56356 -8.31264 0
5.79684 2.46723 0
0 0 0

-1.83262 -9.11732 0
5.51758 2.13206 0
0 0 0

-0.846837 -8.39553 0
6.08594 2.22542 0
0 0 0

-1.60932 -9.12598 0
4.27857 2.04386 0
0 0 0

-2.00987 -9.29281 0
4.91729 2.51189 0
0 0 0

-1.93934 -7.74497 0
5.10446 1.69113 0
0 0 0

-1.80627 -9.49702 0
4.49091 2.93955 0
0 0 0

-2.22911 -9.71107 0
3.99255 3.13578 0
0 0 0

-1.37135 -6.34449 0
4.73249 0.955506 0
0 0 0

-1.18035 -5.64343 0
5.94076 1.78435 0
0 0 0

-2.54401 -7.40743 0
2.9969 2.45286 0
0 0 0

-1.98986 -4.75011 0
4.19847 3.70702 0
0 0 0

-0.584617 -3.25403 0
7.10147 0.435937 0
0 0 0

-0.453256 -2.48458 0
7.01457 -1.00092 0
0 0 0

-1.70812 -4.26924 0
5.23899 5.00869 0
0 0 0

-4.1239 -2.8864 0
2.62591 2.12238 0
0 0 0

-1.00586 -8.90298 0
5.31655 1.45832 0
0 0 0

-1.31557 -9.20699 0
4.70532 0.858363 0
0 0 0

-0.868111 -7.31544 0
5.24097 2.12471 0
0 0 0

-1.45166 -9.4619 0
4.59517 0.399136 0
0 0 0

-1.73206 -9.56068 0
4.30627 1.43757 0
0 0 0

-2.09962 -10.0429 0
3.85006 2.61368 0
0 0 0

-1.77987 -9.52051 0
4.24092 0.471494 0
0 0 0

-1.82981 -9.7866 0
4.33242 1.02526 0
0 0 0

-2.41784 -10.346 0
3.2197 2.01327 0
0 0 0

-1.31492 -7.62399 0
3.99078 3.15722 0
0 0 0

-2.62474 -10.1511 0
4.7064 1.51706 0
0 0 0

-1.2235 -8.84677 0
5.0013 1.60052 0
0 0 0

-1.30842 -5.74932 0
4.2391 4.59795 0
0 0 0

-3.14995 -7.33196 0
3.29338 3.78518 0
0 0 0

-0.105541 -7.49717 0
5.03807 2.14166 0
0 0 0

0.972691 -9.6305 0
8.49239 1.39931 0
0 0 0

SCALARS active double 1
LOOKUP_TABLE default
1
1
1
1
1
1
1
1
1
1
1
1
1
1
1
1
1
1
1
1
1
1
1
1
1
1
1
1
1
1
1
1
1
1
1
1
1
1
1
1
1
1
1
1
1
1
1
1
1
1
1
1
1
1
1
1
1
1
1
1
1
1
1
1
SCALARS extent double 1
LOOKUP_TABLE default
0.0125
0.0125
0.0125
0.0125
0.0125
0.0125
0.0125
0.0125
0.0125
0.0125
0.0125
0.0125
0.0125
0.0125
0.0125
0.0125
0.0125
0.0125
0.0125
0.0125
0.0125
0.0125
0.0125
0.0125
0.0125
0.0125
0.0125
0.0125
0.0125
0.0125
0.0125
0.0125
0.0125
0.0125
0.0125
0.0125
0.0125
0.0125
0.0125
0.0125
0.0125
0.0125
0.0125
0.0125
0.0125
0.0125
0.0125
0.0125
0.0125
0.0125
0.0125
0.0125
0.0125
0.0125
0.0125
0.0125
0.0125
0.0125
0.0125
0.0125
0.0125
0.0125
0.0125
0.0125
SCALARS pressure double 1
LOOKUP_TABLE default
171.572
1092.17
-558.287
476.988
740.72
4083.5
-896.163
3892.73
411.812
1244.18
-2218.96
5976.09
-3687.24
669.206
-2555.5
-1910.14
-2442.54
-535.258
-688.165
-1913.35
1509.15
454.347
76.7467
1804.56
332.71
5485.9
3732.16
-231.599
4072.89
28771.3
8321.94
25418.8
-246.12
-956.953
-932.825
930.967
2827.63
-288.194
1127.05
1985.91
4039.66
5188.35
3836.42
2860.47
4089.67
15873.2
-842.11
19074.1
104.377
1852.17
-741.053
2339.92
-288.3
3631.21
1934.87
759.183
1730.22
-429.064
3271.4
2576.54
2805.69
4096
3584.08
5146.01
SCALARS density double 1
LOOKUP_TABLE default
1001.79
1011.42
994.211
1004.97
1007.73
1043.38
990.723
1041.32
1004.29
1013.02
977.187
1064.12
962.379
1006.98
973.773
980.331
974.917
994.449
992.869
980.298
1015.82
1004.74
1000.8
1018.94
1003.47
1058.71
1039.58
997.594
1043.27
1348.81
1090.4
1302.59
997.444
990.097
990.346
1009.73
1029.84
997.007
1011.79
1020.87
1042.91
1055.44
1040.71
1030.2
1043.45
1179.49
991.28
1219.41
1001.09
1019.45
992.323
1024.63
997.006
1038.49
1020.33
1007.93
1018.16
995.548
1034.61
1027.16
1029.61
1043.52
1037.98
1054.98
