# vtk DataFile Version 3.0
Frame: 38, Time: 0.646
ASCII
DATASET UNSTRUCTURED_GRID
POINTS 64 double
0.15325 0.483034 0 
0.163398 0.460658 0 
0.130384 0.473351 0 
0.141019 0.450949 0 
0.173072 0.437389 0 
0.184686 0.413709 0 
0.150487 0.427222 0 
0.161538 0.404042 0 
0.193487 0.390381 0 
0.203471 0.366421 0 
0.171069 0.380225 0 
0.18102 0.356436 0 
0.213317 0.343563 0 
0.222583 0.318922 0 
0.189973 0.333652 0 
0.200845 0.309254 0 
0.107463 0.464321 0 
0.117002 0.440541 0 
0.0843114 0.45409 0 
0.0945937 0.43094 0 
0.127134 0.417334 0 
0.137564 0.393637 0 
0.104253 0.407004 0 
0.114831 0.384155 0 
0.14711 0.371078 0 
0.156972 0.347944 0 
0.123694 0.360405 0 
0.133524 0.33765 0 
0.165523 0.324695 0 
0.175277 0.300458 0 
0.143167 0.31356 0 
0.152899 0.291623 0 
0.0609308 0.444155 0 
0.0712923 0.420892 0 
0.0381788 0.434006 0 
0.0480123 0.41064 0 
0.0809002 0.397309 0 
0.0913297 0.374171 0 
0.0576511 0.387969 0 
0.0678407 0.364296 0 
0.100916 0.351681 0 
0.110332 0.328659 0 
0.0778815 0.341376 0 
0.0871028 0.318529 0 
0.120189 0.305299 0 
0.130586 0.28308 0 
0.0974635 0.294691 0 
0.107869 0.272428 0 
0.0143866 0.424355 0 
0.0253181 0.401409 0 
0.991346 0.414394 0 
0.00198447 0.390502 0 
0.034439 0.377801 0 
0.045099 0.35432 0 
0.0107347 0.366974 0 
0.022284 0.3443 0 
0.0544758 0.33153 0 
0.0642934 0.309223 0 
0.0308813 0.321503 0 
0.0404215 0.298397 0 
0.0743088 0.285422 0 
0.0856526 0.262381 0 
0.0499025 0.27531 0 
0.0610493 0.253251 0 
CELLS 64 128
1 0
1 1
1 2
1 3
1 4
1 5
1 6
1 7
1 8
1 9
1 10
1 11
1 12
1 13
1 14
1 15
1 16
1 17
1 18
1 19
1 20
1 21
1 22
1 23
1 24
1 25
1 26
1 27
1 28
1 29
1 30
1 31
1 32
1 33
1 34
1 35
1 36
1 37
1 38
1 39
1 40
1 41
1 42
1 43
1 44
1 45
1 46
1 47
1 48
1 49
1 50
1 51
1 52
1 53
1 54
1 55
1 56
1 57
1 58
1 59
1 60
1 61
1 62
1 63
CELL_TYPES 64
1
1
1
1
1
1
1
1
1
1
1
1
1
1
1
1
1
1
1
1
1
1
1
1
1
1
1
1
1
1
1
1
1
1
1
1
1
1
1
1
1
1
1
1
1
1
1
1
1
1
1
1
1
1
1
1
1
1
1
1
1
1
1
1
POINT_DATA 64
VECTORS displacement double
-0.0592503 0.270534 0 
-0.0491022 0.223158 0 
-0.107116 0.260851 0 
-0.0964809 0.213449 0 
-0.0394279 0.174889 0 
-0.0278144 0.126209 0 
-0.0870132 0.164722 0 
-0.0759616 0.116542 0 
-0.0190134 0.0778806 0 
-0.00902862 0.0289214 0 
-0.0664313 0.0677247 0 
-0.0564797 0.0189357 0 
0.000817107 -0.0189365 0 
0.0100834 -0.0685779 0 
-0.047527 -0.0288483 0 
-0.0366552 -0.078246 0 
-0.155037 0.251821 0 
-0.145498 0.203041 0 
-0.203189 0.24159 0 
-0.192906 0.19344 0 
-0.135366 0.154834 0 
-0.124936 0.106137 0 
-0.183247 0.144504 0 
-0.172669 0.0966549 0 
-0.11539 0.0585781 0 
-0.105528 0.0104444 0 
-0.163806 0.0479047 0 
-0.153976 0.000150337 0 
-0.0969767 -0.037805 0 
-0.0872227 -0.0870419 0 
-0.144333 -0.0489396 0 
-0.134601 -0.0958766 0 
-0.251569 0.231655 0 
-0.241208 0.183392 0 
-0.299321 0.221506 0 
-0.289488 0.17314 0 
-0.2316 0.134809 0 
-0.22117 0.0866714 0 
-0.279849 0.125469 0 
-0.269659 0.0767964 0 
-0.211584 0.0391814 0 
-0.202168 -0.00884104 0 
-0.259619 0.0288761 0 
-0.250397 -0.0189708 0 
-0.192311 -0.0572009 0 
-0.181914 -0.10442 0 
-0.240036 -0.0678092 0 
-0.229631 -0.115072 0 
-0.348113 0.211855 0 
-0.337182 0.163909 0 
-0.396154 0.201894 0 
-0.385516 0.153002 0 
-0.328061 0.115301 0 
-0.317401 0.0668195 0 
-0.376765 0.104474 0 
-0.365216 0.0568003 0 
-0.308024 0.0190302 0 
-0.298207 -0.0282771 0 
-0.356619 0.0090033 0 
-0.347078 -0.0391034 0 
-0.288191 -0.0770781 0 
-0.276847 -0.125119 0 
-0.337597 -0.0871897 0 
-0.326451 -0.134249 0 
VECTORS velocity double
-0.32371 -0.68841 0 
0.0465546 -0.66705 0 
-0.273587 -1.03394 0 
0.18612 -0.966717 0 
-0.111206 -0.188149 0 
0.201133 -0.903953 0 
0.0875663 -1.09583 0 
0.166388 -0.904186 0 
0.208098 -0.326027 0 
0.422878 -0.812563 0 
0.587559 -0.666323 0 
0.590047 -0.712123 0 
0.355213 -0.582408 0 
0.541487 -0.531235 0 
0.409243 -0.620034 0 
0.570503 -0.721437 0 
-0.194465 -1.15725 0 
0.448519 -0.878949 0 
-0.390752 -1.22393 0 
0.182613 -1.03286 0 
0.0425979 -0.851167 0 
0.282619 -0.956189 0 
-0.0269469 -0.945558 0 
0.296055 -0.921842 0 
0.522205 -0.867027 0 
0.46987 -1.20954 0 
0.590456 -0.460741 0 
0.323176 -0.832891 0 
0.439082 -0.525583 0 
0.666304 -0.892778 0 
0.442643 -0.708847 0 
0.699948 -0.999883 0 
-0.0334171 -1.17961 0 
0.386469 -1.11057 0 
-0.0317668 -1.68068 0 
0.276321 -1.29493 0 
0.329193 -1.32015 0 
0.49537 -1.45573 0 
0.129639 -1.31085 0 
0.432944 -1.40427 0 
0.548095 -0.983362 0 
0.450195 -1.24934 0 
0.523661 -1.29512 0 
0.376545 -1.42048 0 
0.792121 -1.10686 0 
0.920467 -0.908318 0 
0.58525 -1.15371 0 
0.907138 -0.816905 0 
-0.0269063 -1.31178 0 
0.399668 -1.37569 0 
0.129752 -1.75465 0 
0.41763 -1.57569 0 
0.0924764 -1.31094 0 
0.551894 -1.37314 0 
0.269097 -1.73285 0 
0.583052 -1.55349 0 
0.641548 -1.16532 0 
0.41802 -1.07718 0 
0.716647 -1.38604 0 
0.732253 -1.67529 0 
0.674233 -0.840969 0 
1.1759 -1.08031 0 
0.86929 -1.54495 0 
0.96408 -1.41853 0 
SCALARS mass double 1
LOOKUP_TABLE default
0.625
0.625
0.625
0.625
0.625
0.625
0.625
0.625
0.625
0.625
0.625
0.625
0.625
0.625
0.625
0.625
0.625
0.625
0.625
0.625
0.625
0.625
0.625
0.625
0.625
0.625
0.625
0.625
0.625
0.625
0.625
0.625
0.625
0.625
0.625
0.625
0.625
0.625
0.625
0.625
0.625
0.625
0.625
0.625
0.625
0.625
0.625
0.625
0.625
0.625
0.625
0.625
0.625
0.625
0.625
0.625
0.625
0.625
0.625
0.625
0.625
0.625
0.625
0.625
SCALARS volume double 1
LOOKUP_TABLE default
0.000630702
0.00061685
0.000624543
0.000619501
0.000629565
0.000625522
0.000639448
0.000605871
0.000630695
0.000625575
0.000642778
0.000620926
0.00063021
0.000618189
0.000639671
0.000627813
0.000636153
0.000608906
0.000624855
0.000638109
0.000640528
0.000641616
0.000629272
0.000619644
0.000626221
0.000606862
0.000615468
0.000633491
0.00062133
0.000623643
0.000625823
0.000621434
0.000623313
0.000630685
0.00062552
0.000620616
0.000609071
0.000635554
0.000636334
0.000618308
0.000629166
0.000613031
0.000635695
0.000621162
0.000618228
0.000628634
0.000632289
0.000611124
0.000630722
0.000621554
0.000624722
0.000628516
0.000633173
0.000615597
0.000625158
0.000628431
0.00062094
0.000624782
0.000631161
0.000622124
0.000619037
0.000632827
0.00062535
0.000622349
VECTORS momentum double
-0.202319 -0.430256 0 
0.0290966 -0.416906 0 
-0.170992 -0.64621 0 
0.116325 -0.604198 0 
-0.0695034 -0.117593 0 
0.125708 -0.564971 0 
0.0547289 -0.684897 0 
0.103993 -0.565116 0 
0.130062 -0.203767 0 
0.264299 -0.507852 0 
0.367225 -0.416452 0 
0.36878 -0.445077 0 
0.222008 -0.364005 0 
0.338429 -0.332022 0 
0.255777 -0.387521 0 
0.356565 -0.450898 0 
-0.12154 -0.723284 0 
0.280325 -0.549343 0 
-0.24422 -0.764954 0 
0.114133 -0.645537 0 
0.0266237 -0.53198 0 
0.176637 -0.597618 0 
-0.0168418 -0.590974 0 
0.185035 -0.576151 0 
0.326378 -0.541892 0 
0.293669 -0.755964 0 
0.369035 -0.287963 0 
0.201985 -0.520557 0 
0.274426 -0.32849 0 
0.41644 -0.557986 0 
0.276652 -0.44303 0 
0.437468 -0.624927 0 
-0.0208857 -0.737257 0 
0.241543 -0.694104 0 
-0.0198542 -1.05042 0 
0.172701 -0.809332 0 
0.205746 -0.825094 0 
0.309606 -0.909829 0 
0.0810242 -0.819282 0 
0.27059 -0.877666 0 
0.342559 -0.614601 0 
0.281372 -0.78084 0 
0.327288 -0.809449 0 
0.235341 -0.887799 0 
0.495076 -0.691789 0 
0.575292 -0.567699 0 
0.365781 -0.721071 0 
0.566961 -0.510566 0 
-0.0168164 -0.819864 0 
0.249793 -0.859808 0 
0.0810953 -1.09666 0 
0.261019 -0.984804 0 
0.0577978 -0.81934 0 
0.344934 -0.858215 0 
0.168186 -1.08303 0 
0.364407 -0.970929 0 
0.400967 -0.728325 0 
0.261263 -0.673238 0 
0.447904 -0.866274 0 
0.457658 -1.04705 0 
0.421395 -0.525606 0 
0.734936 -0.675191 0 
0.543306 -0.965597 0 
0.60255 -0.886583 0 
VECTORS body_force double
0 -9.81 0 
0 -9.81 0 
0 -9.81 0 
0 -9.81 0 
0 -9.81 0 
0 -9.81 0 
0 -9.81 0 
0 -9.81 0 
0 -9.81 0 
0 -9.81 0 
0 -9.81 0 
0 -9.81 0 
0 -9.81 0 
0 -9.81 0 
0 -9.81 0 
0 -9.81 0 
0 -9.81 0 
0 -9.81 0 
0 -9.81 0 
0 -9.81 0 
0 -9.81 0 
0 -9.81 0 
0 -9.81 0 
0 -9.81 0 
0 -9.81 0 
0 -9.81 0 
0 -9.81 0 
0 -9.81 0 
0 -9.81 0 
0 -9.81 0 
0 -9.81 0 
0 -9.81 0 
0 -9.81 0 
0 -9.81 0 
0 -9.81 0 
0 -9.81 0 
0 -9.81 0 
0 -9.81 0 
0 -9.81 0 
0 -9.81 0 
0 -9.81 0 
0 -9.81 0 
0 -9.81 0 
0 -9.81 0 
0 -9.81 0 
0 -9.81 0 
0 -9.81 0 
0 -9.81 0 
0 -9.81 0 
0 -9.81 0 
0 -9.81 0 
0 -9.81 0 
0 -9.81 0 
0 -9.81 0 
0 -9.81 0 
0 -9.81 0 
0 -9.81 0 
0 -9.81 0 
0 -9.81 0 
0 -9.81 0 
0 -9.81 0 
0 -9.81 0 
0 -9.81 0 
0 -9.81 0 
TENSORS cauchy_stress double
751.839 -441.138 0
-441.138 994.713 0
0 0 0

-801.463 564.552 0
564.552 -1722.74 0
0 0 0

-1883.92 132.082 0
132.082 1743.26 0
0 0 0

820.033 1687.46 0
1687.46 -2519.54 0
0 0 0

-567.908 1538 0
1538 1967.39 0
0 0 0

2073.39 151.175 0
151.175 -1912.76 0
0 0 0

-476.761 -977.113 0
-977.113 4871.61 0
0 0 0

-2220.18 568.53 0
568.53 -3757.62 0
0 0 0

969.529 -2600.62 0
-2600.62 774.96 0
0 0 0

-1234.01 1531.32 0
1531.32 1410.8 0
0 0 0

3086.84 -2335.37 0
-2335.37 2307.05 0
0 0 0

-2042.87 1812.12 0
1812.12 785.261 0
0 0 0

955.921 -533.057 0
-533.057 640.401 0
0 0 0

-339.4 805.736 0
805.736 -1767.65 0
0 0 0

3666.76 -344.414 0
-344.414 795.341 0
0 0 0

332.569 -11.5251 0
-11.5251 531.043 0
0 0 0

1949.37 1275.52 0
1275.52 1451.99 0
0 0 0

-3070.31 -2198.68 0
-2198.68 -1946.67 0
0 0 0

-58.617 -877.975 0
-877.975 14.0386 0
0 0 0

2417.74 -62.3014 0
-62.3014 1574.13 0
0 0 0

2545 -1315.49 0
-1315.49 2174.47 0
0 0 0

2787.78 1256.14 0
1256.14 2258.12 0
0 0 0

741.881 273.33 0
273.33 568.191 0
0 0 0

-1122.83 -1153.66 0
-1153.66 -532.337 0
0 0 0

-427.359 1962.45 0
1962.45 802.722 0
0 0 0

-2111.07 525.593 0
525.593 -3552.33 0
0 0 0

423.306 -1126.65 0
-1126.65 -3378.94 0
0 0 0

215.507 1028.86 0
1028.86 2379.43 0
0 0 0

-1077.21 -120.157 0
-120.157 -55.3495 0
0 0 0

-1864.32 -229.432 0
-229.432 1446.38 0
0 0 0

-398.721 -1254.21 0
-1254.21 651.805 0
0 0 0

-739.832 2398.06 0
2398.06 -360.595 0
0 0 0

-1247.68 383.127 0
383.127 727.899 0
0 0 0

945.324 -189.61 0
-189.61 796.132 0
0 0 0

453.146 -65.9885 0
-65.9885 -293.128 0
0 0 0

741.535 357.911 0
357.911 -2095.11 0
0 0 0

-4423.62 -370.846 0
-370.846 -541.286 0
0 0 0

4989.93 240.603 0
240.603 -1769.58 0
0 0 0

1489.2 554.18 0
554.18 1966.93 0
0 0 0

-934.251 -165.766 0
-165.766 -1135.84 0
0 0 0

-2127.86 1974.29 0
1974.29 3405.5 0
0 0 0

1091.43 228.242 0
228.242 -4809.96 0
0 0 0

1656.12 94.8548 0
94.8548 1606.87 0
0 0 0

-603.564 215.239 0
215.239 -580.982 0
0 0 0

-1852.23 -58.4652 0
-58.4652 -242.913 0
0 0 0

-692.002 -2042.55 0
-2042.55 1806.92 0
0 0 0

111.496 -1027.46 0
-1027.46 2118.39 0
0 0 0

-515.657 2136.27 0
2136.27 -3801.94 0
0 0 0

665.444 808.036 0
808.036 1087.11 0
0 0 0

-1923.1 -765.175 0
-765.175 860.001 0
0 0 0

-190.987 359.959 0
359.959 105.538 0
0 0 0

1127.03 -222.118 0
-222.118 -48.1236 0
0 0 0

1672.31 1039.79 0
1039.79 826.142 0
0 0 0

-1828.08 -264.936 0
-264.936 -1087.14 0
0 0 0

467.821 -28.6071 0
-28.6071 -419.29 0
0 0 0

578.529 634.895 0
634.895 474.219 0
0 0 0

-274.018 842.459 0
842.459 -979.426 0
0 0 0

-235.156 1621.22 0
1621.22 167.944 0
0 0 0

1301.01 259.186 0
259.186 585.443 0
0 0 0

-972.119 330.593 0
330.593 85.3078 0
0 0 0

-867.888 -180.376 0
-180.376 -975.827 0
0 0 0

-616.373 -1589.91 0
-1589.91 3009.58 0
0 0 0

939.733 -43.7634 0
-43.7634 -831.932 0
0 0 0

350.08 710.531 0
710.531 -1167.36 0
0 0 0

TENSORS velocity_gradient double
0.464772 -5.39776 0
4.7939 0.108111 0
0 0 0

-0.335806 -5.10385 0
4.97423 -0.0469991 0
0 0 0

0.604924 -5.70428 0
5.66431 -0.462287 0
0 0 0

0.419902 -5.13405 0
4.86671 0.158261 0
0 0 0

-0.427275 -4.72352 0
5.00336 1.15319 0
0 0 0

0.136383 -4.99698 0
4.5077 1.39365 0
0 0 0

0.00344607 -4.28063 0
4.63936 0.704724 0
0 0 0

0.331149 -4.43419 0
4.31276 0.770043 0
0 0 0

0.27873 -3.63103 0
4.08153 0.121312 0
0 0 0

0.958693 -3.00839 0
-0.980311 -0.855475 0
0 0 0

0.0536228 -4.13314 0
3.94077 -0.192663 0
0 0 0

-0.479259 -3.9127 0
3.60755 -0.0548147 0
0 0 0

-0.447438 -2.07654 0
1.28354 0.782081 0
0 0 0

-0.437569 -2.0894 0
1.64694 0.796171 0
0 0 0

-0.836786 -2.19075 0
3.42459 1.02248 0
0 0 0

-0.766545 -2.10013 0
2.49488 1.02058 0
0 0 0

0.531823 -5.89262 0
5.32537 -1.33551 0
0 0 0

0.333269 -4.45975 0
4.6352 0.259788 0
0 0 0

0.0756447 -5.50498 0
4.9242 -0.845854 0
0 0 0

0.208497 -4.60326 0
5.27761 0.103669 0
0 0 0

0.134452 -4.37399 0
4.34508 0.384937 0
0 0 0

0.0174228 -4.50387 0
4.27649 -0.104813 0
0 0 0

0.0737844 -4.56094 0
4.45028 0.122166 0
0 0 0

0.0691356 -4.37897 0
4.50878 0.45467 0
0 0 0

0.0790145 -4.53414 0
4.60937 -0.335941 0
0 0 0

-0.630681 -3.34578 0
3.52259 0.351347 0
0 0 0

0.215019 -4.43268 0
5.13687 0.223418 0
0 0 0

0.0293331 -3.06915 0
5.23879 0.518003 0
0 0 0

-0.948686 -2.49991 0
3.37763 0.89274 0
0 0 0

-1.20684 -3.67859 0
3.07041 1.68457 0
0 0 0

-0.510292 -2.85499 0
4.81944 0.684436 0
0 0 0

-1.11908 -5.51684 0
3.1259 1.10056 0
0 0 0

0.190001 -4.67202 0
5.18085 0.345198 0
0 0 0

0.202675 -4.61357 0
5.41069 0.2968 0
0 0 0

-0.514372 -4.48176 0
4.24357 0.356469 0
0 0 0

-0.0984941 -4.57055 0
4.49 0.417984 0
0 0 0

0.151037 -4.55218 0
5.53669 0.466142 0
0 0 0

-0.0934089 -4.39571 0
5.3217 0.73575 0
0 0 0

0.0701849 -4.7893 0
5.47968 0.355665 0
0 0 0

-0.207513 -4.6713 0
5.21151 0.469618 0
0 0 0

-0.0370995 -4.1726 0
5.18265 0.506121 0
0 0 0

-0.169053 -3.58865 0
5.08462 0.114292 0
0 0 0

-0.372867 -3.75633 0
4.92487 -0.393967 0
0 0 0

-0.321016 -3.77703 0
4.58265 -0.257392 0
0 0 0

-0.692558 -3.36987 0
4.6778 0.284306 0
0 0 0

-0.978846 -5.65408 0
3.57368 -0.355731 0
0 0 0

-0.347408 -5.48875 0
4.56418 -1.52008 0
0 0 0

-1.07517 -5.86149 0
2.91395 -1.7763 0
0 0 0

-0.403402 -4.20465 0
4.14549 0.111546 0
0 0 0

-0.118233 -4.32816 0
3.9338 0.264007 0
0 0 0

0.123993 -3.85712 0
3.3368 -0.151396 0
0 0 0

0.0447598 -3.98353 0
3.52875 0.383132 0
0 0 0

0.358771 -4.52203 0
3.9648 0.337262 0
0 0 0

0.777862 -4.70659 0
4.13003 0.248625 0
0 0 0

0.597185 -3.99452 0
4.00848 0.433908 0
0 0 0

0.742729 -4.87904 0
4.00504 -0.947904 0
0 0 0

-0.245817 -3.75968 0
4.60461 -0.743595 0
0 0 0

-0.300166 -3.72528 0
4.44505 -0.59891 0
0 0 0

-0.246526 -4.60709 0
3.69837 -1.0835 0
0 0 0

-1.0766 -4.46153 0
3.4946 0.300919 0
0 0 0

-0.0344742 -5.4474 0
5.20317 -0.407652 0
0 0 0

0.384023 -5.65032 0
6.78552 -1.17488 0
0 0 0

-0.307665 -4.96861 0
4.77604 1.10887 0
0 0 0

0.511127 -4.86557 0
7.18326 1.33811 0
0 0 0

SCALARS active double 1
LOOKUP_TABLE default
1
1
1
1
1
1
1
1
1
1
1
1
1
1
1
1
1
1
1
1
1
1
1
1
1
1
1
1
1
1
1
1
1
1
1
1
1
1
1
1
1
1
1
1
1
1
1
1
1
1
1
1
1
1
1
1
1
1
1
1
1
1
1
1
SCALARS extent double 1
LOOKUP_TABLE default
0.0125
0.0125
0.0125
0.0125
0.0125
0.0125
0.0125
0.0125
0.0125
0.0125
0.0125
0.0125
0.0125
0.0125
0.0125
0.0125
0.0125
0.0125
0.0125
0.0125
0.0125
0.0125
0.0125
0.0125
0.0125
0.0125
0.0125
0.0125
0.0125
0.0125
0.0125
0.0125
0.0125
0.0125
0.0125
0.0125
0.0125
0.0125
0.0125
0.0125
0.0125
0.0125
0.0125
0.0125
0.0125
0.0125
0.0125
0.0125
0.0125
0.0125
0.0125
0.0125
0.0125
0.0125
0.0125
0.0125
0.0125
0.0125
0.0125
0.0125
0.0125
0.0125
0.0125
0.0125
SCALARS pressure double 1
LOOKUP_TABLE default
-873.276
1262.1
70.3297
849.752
-699.741
-80.3149
-2197.43
2988.9
-872.245
-88.3933
-2696.95
628.804
-798.161
1053.52
-2231.05
-431.806
-1700.68
2508.49
22.2892
-1995.94
-2359.74
-2522.95
-655.036
827.584
-187.682
2831.7
1477.81
-1297.47
566.282
208.972
-126.542
550.213
259.891
-870.728
-80.0092
676.789
2482.45
-1610.18
-1728.06
1035.04
-638.82
1859.26
-1631.5
592.273
1047.57
-557.458
-1114.94
2158.8
-876.277
531.549
42.7246
-539.452
-1249.23
1457.61
-24.2657
-526.374
626.722
33.6063
-943.225
443.406
921.857
-1196.6
-53.9004
408.64
SCALARS density double 1
LOOKUP_TABLE default
990.959
1013.21
1000.73
1008.88
992.749
999.165
977.406
1031.57
990.97
999.081
972.341
1006.56
991.733
1011.02
977.064
995.519
982.468
1026.43
1000.23
979.456
975.757
974.103
993.211
1008.64
998.05
1029.89
1015.49
986.597
1005.91
1002.18
998.685
1005.74
1002.71
990.985
999.168
1007.06
1026.15
983.394
982.189
1010.82
993.378
1019.52
983.176
1006.18
1010.95
994.219
988.472
1022.71
990.928
1005.54
1000.44
994.405
987.092
1015.27
999.748
994.541
1006.54
1000.35
990.238
1004.62
1009.63
987.632
999.44
1004.26
