# vtk DataFile Version 3.0
Frame: 37, Time: 0.629
ASCII
DATASET UNSTRUCTURED_GRID
POINTS 64 double
0.69652 0.113676 0 
0.673202 0.105165 0 
0.686286 0.140032 0 
0.663925 0.132499 0 
0.647934 0.0989728 0 
0.626489 0.0880367 0 
0.639731 0.125387 0 
0.61625 0.115039 0 
0.603002 0.0797592 0 
0.578441 0.0691613 0 
0.591962 0.10466 0 
0.56875 0.0936972 0 
0.555452 0.0593124 0 
0.530553 0.0491795 0 
0.54604 0.0834478 0 
0.522456 0.0725697 0 
0.676807 0.165814 0 
0.652841 0.156185 0 
0.670942 0.189546 0 
0.645998 0.179674 0 
0.629544 0.14746 0 
0.605224 0.137856 0 
0.621687 0.169533 0 
0.596016 0.159717 0 
0.580215 0.127821 0 
0.559149 0.116375 0 
0.57158 0.151721 0 
0.549134 0.140646 0 
0.536824 0.105872 0 
0.512765 0.0957038 0 
0.526688 0.129254 0 
0.503527 0.120057 0 
0.660801 0.214692 0 
0.636786 0.20345 0 
0.654119 0.240293 0 
0.628451 0.228352 0 
0.613663 0.193835 0 
0.588447 0.184171 0 
0.604555 0.216933 0 
0.579371 0.207859 0 
0.562976 0.175297 0 
0.53951 0.164954 0 
0.555295 0.19797 0 
0.53105 0.187749 0 
0.516318 0.153741 0 
0.493062 0.145003 0 
0.507242 0.178136 0 
0.483841 0.169691 0 
0.645816 0.262494 0 
0.619754 0.250817 0 
0.634363 0.286345 0 
0.610107 0.274413 0 
0.596177 0.240885 0 
0.572121 0.232149 0 
0.58738 0.264787 0 
0.563486 0.254607 0 
0.548203 0.222332 0 
0.523448 0.211684 0 
0.539107 0.24533 0 
0.515632 0.236435 0 
0.49907 0.203173 0 
0.474963 0.19371 0 
0.491219 0.227667 0 
0.46715 0.218695 0 
CELLS 64 128
1 0
1 1
1 2
1 3
1 4
1 5
1 6
1 7
1 8
1 9
1 10
1 11
1 12
1 13
1 14
1 15
1 16
1 17
1 18
1 19
1 20
1 21
1 22
1 23
1 24
1 25
1 26
1 27
1 28
1 29
1 30
1 31
1 32
1 33
1 34
1 35
1 36
1 37
1 38
1 39
1 40
1 41
1 42
1 43
1 44
1 45
1 46
1 47
1 48
1 49
1 50
1 51
1 52
1 53
1 54
1 55
1 56
1 57
1 58
1 59
1 60
1 61
1 62
1 63
CELL_TYPES 64
1
1
1
1
1
1
1
1
1
1
1
1
1
1
1
1
1
1
1
1
1
1
1
1
1
1
1
1
1
1
1
1
1
1
1
1
1
1
1
1
1
1
1
1
1
1
1
1
1
1
1
1
1
1
1
1
1
1
1
1
1
1
1
1
POINT_DATA 64
VECTORS displacement double
0.0840202 -0.198824 0 
0.060702 -0.232335 0 
0.0487862 -0.172468 0 
0.0264252 -0.205001 0 
0.0354335 -0.263527 0 
0.0139889 -0.299463 0 
0.00223137 -0.237113 0 
-0.0212502 -0.272461 0 
-0.00949847 -0.332741 0 
-0.0340592 -0.368339 0 
-0.0455384 -0.30784 0 
-0.0687503 -0.343803 0 
-0.0570484 -0.403188 0 
-0.0819472 -0.438321 0 
-0.0914601 -0.379052 0 
-0.115044 -0.41493 0 
0.0143071 -0.146686 0 
-0.00965851 -0.181315 0 
-0.016558 -0.122954 0 
-0.0415017 -0.157826 0 
-0.0329561 -0.21504 0 
-0.0572756 -0.249644 0 
-0.0658132 -0.192967 0 
-0.091484 -0.227783 0 
-0.0822853 -0.284679 0 
-0.103351 -0.321125 0 
-0.11592 -0.260779 0 
-0.138366 -0.296854 0 
-0.125676 -0.356628 0 
-0.149735 -0.391796 0 
-0.160812 -0.333246 0 
-0.183973 -0.367443 0 
-0.0516985 -0.0978084 0 
-0.0757141 -0.13405 0 
-0.0833814 -0.0722068 0 
-0.109049 -0.109148 0 
-0.098837 -0.168665 0 
-0.124053 -0.203329 0 
-0.132945 -0.145567 0 
-0.158129 -0.179641 0 
-0.149524 -0.237203 0 
-0.17299 -0.272546 0 
-0.182205 -0.21453 0 
-0.20645 -0.249751 0 
-0.196182 -0.308759 0 
-0.219438 -0.342497 0 
-0.230258 -0.284364 0 
-0.253659 -0.317809 0 
-0.116684 -0.0500057 0 
-0.142746 -0.086683 0 
-0.153137 -0.026155 0 
-0.177393 -0.0630872 0 
-0.166323 -0.121615 0 
-0.190379 -0.155351 0 
-0.20012 -0.0977134 0 
-0.224014 -0.132893 0 
-0.214297 -0.190168 0 
-0.239052 -0.225816 0 
-0.248393 -0.16717 0 
-0.271868 -0.201065 0 
-0.26343 -0.259327 0 
-0.287537 -0.29379 0 
-0.296281 -0.234833 0 
-0.32035 -0.268805 0 
VECTORS velocity double
-0.0760703 2.0919 0 
0.477512 1.29799 0 
-0.281318 2.22288 0 
-0.60176 1.26585 0 
0.22087 0.76867 0 
0.950789 0.832232 0 
-0.82946 0.760873 0 
-0.721683 0.469012 0 
0.800329 0.291146 0 
0.584888 0.359935 0 
-0.433597 -0.286112 0 
-0.424381 -0.604062 0 
0.865346 -0.213303 0 
0.8235 -1.00775 0 
-0.0441164 -0.470825 0 
0.129983 -1.04005 0 
-1.51621 0.548908 0 
-1.42859 0.528257 0 
-1.89862 1.67695 0 
-1.57598 0.304854 0 
-0.836137 0.835736 0 
-0.75968 0.59565 0 
-0.953251 0.132861 0 
-0.973434 0.175042 0 
-0.815311 -0.120513 0 
-0.465985 -0.614223 0 
-0.986255 -0.146411 0 
-0.646003 -0.636026 0 
0.077257 -0.532493 0 
0.0657753 -0.873905 0 
-0.0761961 -0.323801 0 
-0.467708 -0.779461 0 
-1.69479 1.62801 0 
-1.279 0.799445 0 
-1.67934 1.592 0 
-1.5716 0.673074 0 
-1.3443 0.302693 0 
-1.03909 0.0996033 0 
-2.12664 0.972919 0 
-1.87754 0.73318 0 
-0.781509 -0.190086 0 
-0.568979 -0.763829 0 
-1.16433 -0.150232 0 
-0.99873 -0.725298 0 
-0.440622 -0.212077 0 
-0.392345 -0.999777 0 
-1.11323 -0.068998 0 
-0.517583 -0.95838 0 
-1.81312 1.05669 0 
-1.52225 0.421218 0 
-2.59486 1.47995 0 
-2.03922 0.163733 0 
-1.14503 0.680615 0 
-1.1162 0.478448 0 
-2.04138 0.33558 0 
-2.17758 -0.0131668 0 
-1.25846 -0.482837 0 
-1.01844 -0.542793 0 
-1.87621 -0.0439613 0 
-1.63598 -0.471345 0 
-0.624619 -0.0911171 0 
-0.405568 -1.29721 0 
-1.4165 -0.636718 0 
-1.59299 -1.31304 0 
SCALARS mass double 1
LOOKUP_TABLE default
0.625
0.625
0.625
0.625
0.625
0.625
0.625
0.625
0.625
0.625
0.625
0.625
0.625
0.625
0.625
0.625
0.625
0.625
0.625
0.625
0.625
0.625
0.625
0.625
0.625
0.625
0.625
0.625
0.625
0.625
0.625
0.625
0.625
0.625
0.625
0.625
0.625
0.625
0.625
0.625
0.625
0.625
0.625
0.625
0.625
0.625
0.625
0.625
0.625
0.625
0.625
0.625
0.625
0.625
0.625
0.625
0.625
0.625
0.625
0.625
0.625
0.625
0.625
0.625
SCALARS volume double 1
LOOKUP_TABLE default
0.000605135
0.000636989
0.000609732
0.000644216
0.00065447
0.000603194
0.000628348
0.000676447
0.000633675
0.000601515
0.000674835
0.000620124
0.000661029
0.000600379
0.00062805
0.000637578
0.000628528
0.000627745
0.000661965
0.000647967
0.000536619
0.00062456
0.00064103
0.00064215
0.000613224
0.000614068
0.000639285
0.000633954
0.000605238
0.000626996
0.000634226
0.000660783
0.000602648
0.000640343
0.000636796
0.000664995
0.000659229
0.000655417
0.000619285
0.000617888
0.000652837
0.00062363
0.000630548
0.000619446
0.000626893
0.000636011
0.000639294
0.000634483
0.000629011
0.000631956
0.000631121
0.000617239
0.000646048
0.000627971
0.000619314
0.000633292
0.000629465
0.000644638
0.000652841
0.00061883
0.00062207
0.000639975
0.000621829
0.000641311
VECTORS momentum double
-0.0475439 1.30744 0 
0.298445 0.811243 0 
-0.175824 1.3893 0 
-0.3761 0.791159 0 
0.138044 0.480419 0 
0.594243 0.520145 0 
-0.518413 0.475546 0 
-0.451052 0.293132 0 
0.500205 0.181966 0 
0.365555 0.224959 0 
-0.270998 -0.17882 0 
-0.265238 -0.377539 0 
0.540841 -0.133314 0 
0.514688 -0.629842 0 
-0.0275727 -0.294266 0 
0.0812393 -0.650034 0 
-0.947634 0.343067 0 
-0.89287 0.330161 0 
-1.18664 1.04809 0 
-0.984988 0.190534 0 
-0.522586 0.522335 0 
-0.4748 0.372281 0 
-0.595782 0.0830383 0 
-0.608396 0.109401 0 
-0.50957 -0.0753207 0 
-0.29124 -0.383889 0 
-0.61641 -0.0915071 0 
-0.403752 -0.397516 0 
0.0482856 -0.332808 0 
0.0411095 -0.546191 0 
-0.0476225 -0.202375 0 
-0.292317 -0.487163 0 
-1.05924 1.01751 0 
-0.799378 0.499653 0 
-1.04959 0.994998 0 
-0.982252 0.420671 0 
-0.84019 0.189183 0 
-0.649429 0.0622521 0 
-1.32915 0.608075 0 
-1.17346 0.458238 0 
-0.488443 -0.118804 0 
-0.355612 -0.477393 0 
-0.727705 -0.0938949 0 
-0.624206 -0.453311 0 
-0.275389 -0.132548 0 
-0.245215 -0.62486 0 
-0.69577 -0.0431237 0 
-0.323489 -0.598987 0 
-1.1332 0.66043 0 
-0.951406 0.263261 0 
-1.62179 0.924968 0 
-1.27451 0.102333 0 
-0.715641 0.425385 0 
-0.697627 0.29903 0 
-1.27586 0.209737 0 
-1.36099 -0.00822925 0 
-0.786535 -0.301773 0 
-0.636523 -0.339246 0 
-1.17263 -0.0274758 0 
-1.02249 -0.29459 0 
-0.390387 -0.0569482 0 
-0.25348 -0.810754 0 
-0.885313 -0.397949 0 
-0.995617 -0.820652 0 
VECTORS body_force double
0 -9.81 0 
0 -9.81 0 
0 -9.81 0 
0 -9.81 0 
0 -9.81 0 
0 -9.81 0 
0 -9.81 0 
0 -9.81 0 
0 -9.81 0 
0 -9.81 0 
0 -9.81 0 
0 -9.81 0 
0 -9.81 0 
0 -9.81 0 
0 -9.81 0 
0 -9.81 0 
0 -9.81 0 
0 -9.81 0 
0 -9.81 0 
0 -9.81 0 
0 -9.81 0 
0 -9.81 0 
0 -9.81 0 
0 -9.81 0 
0 -9.81 0 
0 -9.81 0 
0 -9.81 0 
0 -9.81 0 
0 -9.81 0 
0 -9.81 0 
0 -9.81 0 
0 -9.81 0 
0 -9.81 0 
0 -9.81 0 
0 -9.81 0 
0 -9.81 0 
0 -9.81 0 
0 -9.81 0 
0 -9.81 0 
0 -9.81 0 
0 -9.81 0 
0 -9.81 0 
0 -9.81 0 
0 -9.81 0 
0 -9.81 0 
0 -9.81 0 
0 -9.81 0 
0 -9.81 0 
0 -9.81 0 
0 -9.81 0 
0 -9.81 0 
0 -9.81 0 
0 -9.81 0 
0 -9.81 0 
0 -9.81 0 
0 -9.81 0 
0 -9.81 0 
0 -9.81 0 
0 -9.81 0 
0 -9.81 0 
0 -9.81 0 
0 -9.81 0 
0 -9.81 0 
0 -9.81 0 
TENSORS cauchy_stress double
-3501.89 2162.54 0
2162.54 -2709.59 0
0 0 0

2896.24 -689.017 0
-689.017 757.72 0
0 0 0

-11411.9 2047.55 0
2047.55 6655.77 0
0 0 0

-3812.31 -2272.32 0
-2272.32 9635.8 0
0 0 0

4277.06 973.465 0
973.465 4583.26 0
0 0 0

-6692.11 -1188.52 0
-1188.52 -137.377 0
0 0 0

339.781 -4174.86 0
-4174.86 687.52 0
0 0 0

5509.43 -1842.11 0
-1842.11 9702.47 0
0 0 0

2275.89 -1886.32 0
-1886.32 374.983 0
0 0 0

-2395.99 -386.836 0
-386.836 -4969.57 0
0 0 0

7435.55 -2409.69 0
-2409.69 7317.64 0
0 0 0

-3779.11 943.807 0
943.807 2272.77 0
0 0 0

6461.64 910.194 0
910.194 4316.41 0
0 0 0

-190.942 3625.41 0
3625.41 -7538.1 0
0 0 0

140.291 -1147.75 0
-1147.75 795.783 0
0 0 0

2044.97 -3046.47 0
-3046.47 1786.86 0
0 0 0

5178.32 -2725.92 0
-2725.92 -4095.69 0
0 0 0

10088.7 -88.2944 0
-88.2944 -9245.94 0
0 0 0

3265.88 -252.419 0
-252.419 7784.19 0
0 0 0

2267.15 1981.12 0
1981.12 4672.84 0
0 0 0

-10677.4 -3743 0
-3743 -18642.4 0
0 0 0

3944.29 1851.1 0
1851.1 -4079.6 0
0 0 0

3967.51 2984.33 0
2984.33 902.569 0
0 0 0

2900.24 2626.32 0
2626.32 2305.54 0
0 0 0

-1525.98 -2030.45 0
-2030.45 -2131.96 0
0 0 0

-5276.85 467.086 0
467.086 1883.34 0
0 0 0

-1056.63 3870.26 0
3870.26 5402.38 0
0 0 0

-1904.43 -728.174 0
-728.174 4639.83 0
0 0 0

-3183.87 -540.354 0
-540.354 -2994.93 0
0 0 0

-148.048 -661.49 0
-661.49 761.092 0
0 0 0

-1829.41 1386.98 0
1386.98 4647.46 0
0 0 0

3157.81 -372.121 0
-372.121 7548.6 0
0 0 0

-3390.29 548.216 0
548.216 -3613.21 0
0 0 0

-155.999 794.306 0
794.306 4819.92 0
0 0 0

1712.77 4957.13 0
4957.13 1883 0
0 0 0

4500.97 5159.06 0
5159.06 7427.61 0
0 0 0

4289.93 181.59 0
181.59 5963.71 0
0 0 0

6578.51 -1715.62 0
-1715.62 2559.82 0
0 0 0

-316.605 1253.38 0
1253.38 -1449.86 0
0 0 0

-1577.51 3357.37 0
3357.37 -623.342 0
0 0 0

3212.34 2507.53 0
2507.53 5167.62 0
0 0 0

1038.41 -1378.27 0
-1378.27 -1460.35 0
0 0 0

-1287.76 3461.52 0
3461.52 2987.17 0
0 0 0

-2298.64 4711.45 0
4711.45 581.93 0
0 0 0

-1048.15 -1367.3 0
-1367.3 1629.86 0
0 0 0

1206.94 -607.782 0
-607.782 2151.71 0
0 0 0

-353.848 -236.156 0
-236.156 4702.32 0
0 0 0

-1651.56 -990.286 0
-990.286 4547.43 0
0 0 0

2004.33 501.724 0
501.724 -774.066 0
0 0 0

1671.46 4608.54 0
4608.54 457.002 0
0 0 0

1414.06 -577.821 0
-577.821 460.023 0
0 0 0

-3663.23 2192.92 0
2192.92 1260.32 0
0 0 0

1693.51 -3427.32 0
-3427.32 4676.19 0
0 0 0

765.817 2780.66 0
2780.66 146.264 0
0 0 0

-1303.39 400.659 0
400.659 -454.107 0
0 0 0

904.316 2216.14 0
2216.14 1630.44 0
0 0 0

4575.96 2041.35 0
2041.35 -3207.14 0
0 0 0

5222.77 252.386 0
252.386 726.766 0
0 0 0

2567.8 1167.41 0
1167.41 5813.47 0
0 0 0

-2419.07 1303.35 0
1303.35 511.177 0
0 0 0

-1442.94 -1592.21 0
-1592.21 539.399 0
0 0 0

2569.54 940.372 0
940.372 1983.78 0
0 0 0

-1694.21 3501.64 0
3501.64 716.012 0
0 0 0

-219.169 -65.0562 0
-65.0562 5173.48 0
0 0 0

TENSORS velocity_gradient double
4.94925 -17.41 0
12.4626 -6.51003 0
0 0 0

2.23701 -16.9306 0
16.7485 -3.8104 0
0 0 0

4.08761 -18.133 0
14.9792 -6.36466 0
0 0 0

3.77186 -19.1111 0
15.4052 -5.04502 0
0 0 0

1.54903 -17.033 0
16.2578 -1.54371 0
0 0 0

2.45107 -15.3418 0
16.1617 -1.3685 0
0 0 0

-0.685958 -18.8081 0
13.5766 -3.00298 0
0 0 0

0.277723 -16.534 0
14.7967 -0.123933 0
0 0 0

2.12439 -14.0194 0
15.2546 -2.04102 0
0 0 0

-0.0996081 -13.8861 0
13.8418 -1.60493 0
0 0 0

-0.44271 -14.0895 0
12.93 1.43523 0
0 0 0

0.0655987 -13.9158 0
13.1256 -1.27489 0
0 0 0

0.0798056 -14.0035 0
13.5875 -0.884011 0
0 0 0

2.61299 -0.801528 0
8.82897 -6.25687 0
0 0 0

0.516564 -13.7161 0
7.42317 -0.266672 0
0 0 0

1.38017 -12.1296 0
7.2933 2.18478 0
0 0 0

1.71283 -15.1793 0
12.4059 0.300441 0
0 0 0

2.23114 -11.3632 0
13.006 2.73125 0
0 0 0

-2.94084 -14.0988 0
9.31325 1.01851 0
0 0 0

-1.94417 -10.1889 0
10.4059 3.72557 0
0 0 0

-2.6265 -15.9539 0
11.0544 -0.337861 0
0 0 0

-1.97556 -15.5079 0
12.0222 1.1549 0
0 0 0

-2.57585 -10.4937 0
10.3953 4.07368 0
0 0 0

-4.5825 -11.0164 0
12.1291 4.11202 0
0 0 0

-2.7389 -12.961 0
12.7355 2.04067 0
0 0 0

-1.59532 -10.7823 0
12.8203 2.2023 0
0 0 0

-4.85593 -11.1527 0
12.6463 3.17775 0
0 0 0

-2.74042 -10.0344 0
8.5388 2.21793 0
0 0 0

-0.665651 -9.4893 0
4.49747 2.14078 0
0 0 0

-0.191016 -10.9197 0
4.97245 2.91755 0
0 0 0

-1.24749 -9.24227 0
4.73756 2.03885 0
0 0 0

-1.04137 -8.64373 0
4.09637 1.61989 0
0 0 0

-4.12304 -4.61924 0
6.58293 1.04018 0
0 0 0

-1.82425 -6.7348 0
10.2936 2.59871 0
0 0 0

-2.10246 -5.122 0
4.47972 1.61206 0
0 0 0

-2.22389 -5.21688 0
10.5431 1.93559 0
0 0 0

-1.87868 -10.7172 0
10.2694 4.11401 0
0 0 0

-5.63976 -10.9559 0
13.0908 4.03202 0
0 0 0

-2.02963 -4.76242 0
10.4497 1.67203 0
0 0 0

-4.86029 -7.34235 0
12.9831 2.49304 0
0 0 0

-5.48123 -10.4768 0
12.9596 3.63539 0
0 0 0

-2.59918 -9.6785 0
5.57996 3.0176 0
0 0 0

-5.55566 -10.4865 0
13.1745 3.55517 0
0 0 0

-3.85887 -9.22114 0
6.52199 2.67558 0
0 0 0

-2.01728 -8.48157 0
5.15294 2.03379 0
0 0 0

-2.04731 -8.22828 0
5.7041 0.752336 0
0 0 0

-3.3368 -7.89535 0
6.13157 1.68411 0
0 0 0

-1.17364 -8.31922 0
8.1717 0.0512742 0
0 0 0

-1.81085 -9.75412 0
8.4523 2.28152 0
0 0 0

-2.56769 -7.64808 0
10.908 1.5822 0
0 0 0

-2.27721 -10.0269 0
12.4516 2.03286 0
0 0 0

-2.4038 -10.2931 0
11.9072 0.888023 0
0 0 0

-0.968108 -5.26432 0
11.2119 1.81776 0
0 0 0

-1.43574 -8.33982 0
11.8544 2.82179 0
0 0 0

1.56881 -10.7737 0
10.893 0.417281 0
0 0 0

1.15168 -11.2617 0
11.0124 0.992816 0
0 0 0

-3.87652 -11.2124 0
10.3482 3.5427 0
0 0 0

-4.69014 -11.3029 0
7.88825 2.07656 0
0 0 0

-5.28687 -11.4227 0
10.3602 2.73855 0
0 0 0

-5.0499 -11.1929 0
9.68602 1.52688 0
0 0 0

-1.92091 -10.5033 0
9.02734 0.560325 0
0 0 0

0.176315 -9.03119 0
10.1789 -0.676808 0
0 0 0

2.15079 -11.391 0
11.7799 -0.00847021 0
0 0 0

1.638 -12.8138 0
11.4345 -0.966906 0
0 0 0

SCALARS active double 1
LOOKUP_TABLE default
1
1
1
1
1
1
1
1
1
1
1
1
1
1
1
1
1
1
1
1
1
1
1
1
1
1
1
1
1
1
1
1
1
1
1
1
1
1
1
1
1
1
1
1
1
1
1
1
1
1
1
1
1
1
1
1
1
1
1
1
1
1
1
1
SCALARS extent double 1
LOOKUP_TABLE default
0.0125
0.0125
0.0125
0.0125
0.0125
0.0125
0.0125
0.0125
0.0125
0.0125
0.0125
0.0125
0.0125
0.0125
0.0125
0.0125
0.0125
0.0125
0.0125
0.0125
0.0125
0.0125
0.0125
0.0125
0.0125
0.0125
0.0125
0.0125
0.0125
0.0125
0.0125
0.0125
0.0125
0.0125
0.0125
0.0125
0.0125
0.0125
0.0125
0.0125
0.0125
0.0125
0.0125
0.0125
0.0125
0.0125
0.0125
0.0125
0.0125
0.0125
0.0125
0.0125
0.0125
0.0125
0.0125
0.0125
0.0125
0.0125
0.0125
0.0125
0.0125
0.0125
0.0125
0.0125
SCALARS pressure double 1
LOOKUP_TABLE default
3105.74
-1826.98
2378.06
-2911.74
-4430.16
3414.74
-513.651
-7605.95
-1325.43
3682.78
-7376.59
753.167
-5389.02
3864.52
-468.037
-1915.92
-541.312
-421.364
-5525.03
-3470
14659.9
67.6508
-2435.04
-2602.89
1828.97
1696.75
-2172.88
-1367.7
3089.4
-306.522
-1409.03
-5353.2
3501.75
-2331.96
-1797.89
-5964.29
-5126.82
-4569.17
883.232
1100.43
-4189.98
210.97
-849.704
858.353
-290.854
-1679.32
-2174.23
-1447.93
-615.132
-1064.23
-937.039
1201.45
-3184.85
-456.041
878.75
-1267.38
-684.411
-2974.77
-4190.63
953.947
451.769
-2276.66
489.1
-2477.16
SCALARS density double 1
LOOKUP_TABLE default
1032.83
981.179
1025.04
970.172
954.972
1036.15
994.672
923.946
986.31
1039.04
926.152
1007.86
945.496
1041.01
995.144
980.272
994.386
995.627
944.159
964.555
1164.7
1000.7
974.994
973.293
1019.2
1017.8
977.655
985.877
1032.65
996.817
985.453
945.848
1037.09
976.039
981.476
939.856
948.078
953.592
1009.23
1011.51
957.36
1002.2
991.202
1008.97
996.98
982.687
977.642
985.054
993.623
988.993
990.302
1012.57
967.42
995.268
1009.18
986.906
992.907
969.536
957.353
1009.97
1004.71
976.601
1005.1
974.567
