# vtk DataFile Version 3.0
Frame: 55, Time: 0.935
ASCII
DATASET UNSTRUCTURED_GRID
POINTS 64 double
0.45642 0.213656 0 
0.452034 0.190197 0 
0.428797 0.218568 0 
0.425297 0.193648 0 
0.448212 0.164939 0 
0.448799 0.14139 0 
0.421916 0.167908 0 
0.420564 0.142944 0 
0.444759 0.11616 0 
0.444478 0.0905126 0 
0.418614 0.118145 0 
0.417424 0.0928804 0 
0.442991 0.0677544 0 
0.442418 0.0430321 0 
0.415314 0.0682678 0 
0.414964 0.0436204 0 
0.400617 0.220478 0 
0.399092 0.195198 0 
0.377109 0.227187 0 
0.373604 0.201328 0 
0.397616 0.170865 0 
0.394972 0.145404 0 
0.373075 0.175029 0 
0.370845 0.147941 0 
0.392104 0.119397 0 
0.392748 0.095061 0 
0.36712 0.122835 0 
0.366795 0.0966062 0 
0.391885 0.0712648 0 
0.390674 0.0461234 0 
0.366012 0.0713731 0 
0.364166 0.0475191 0 
0.351105 0.229346 0 
0.348994 0.202454 0 
0.324024 0.233525 0 
0.323592 0.204448 0 
0.34748 0.177092 0 
0.345626 0.150398 0 
0.322664 0.178421 0 
0.320302 0.152001 0 
0.342304 0.123832 0 
0.340757 0.0977753 0 
0.318303 0.126587 0 
0.316093 0.10099 0 
0.339271 0.070874 0 
0.337447 0.0446703 0 
0.314588 0.073903 0 
0.312087 0.0475523 0 
0.300728 0.234881 0 
0.299551 0.205835 0 
0.274156 0.234688 0 
0.274251 0.207713 0 
0.296898 0.1812 0 
0.294374 0.155753 0 
0.270727 0.183764 0 
0.269861 0.158002 0 
0.292938 0.129309 0 
0.291995 0.102749 0 
0.269372 0.131293 0 
0.26604 0.105993 0 
0.28973 0.0770099 0 
0.286685 0.0504846 0 
0.263269 0.0790347 0 
0.260946 0.054408 0 
CELLS 64 128
1 0
1 1
1 2
1 3
1 4
1 5
1 6
1 7
1 8
1 9
1 10
1 11
1 12
1 13
1 14
1 15
1 16
1 17
1 18
1 19
1 20
1 21
1 22
1 23
1 24
1 25
1 26
1 27
1 28
1 29
1 30
1 31
1 32
1 33
1 34
1 35
1 36
1 37
1 38
1 39
1 40
1 41
1 42
1 43
1 44
1 45
1 46
1 47
1 48
1 49
1 50
1 51
1 52
1 53
1 54
1 55
1 56
1 57
1 58
1 59
1 60
1 61
1 62
1 63
CELL_TYPES 64
1
1
1
1
1
1
1
1
1
1
1
1
1
1
1
1
1
1
1
1
1
1
1
1
1
1
1
1
1
1
1
1
1
1
1
1
1
1
1
1
1
1
1
1
1
1
1
1
1
1
1
1
1
1
1
1
1
1
1
1
1
1
1
1
POINT_DATA 64
VECTORS displacement double
-0.15608 -0.0988443 0 
-0.160466 -0.147303 0 
-0.208703 -0.0939323 0 
-0.212203 -0.143852 0 
-0.164288 -0.197561 0 
-0.163701 -0.24611 0 
-0.215584 -0.194592 0 
-0.216936 -0.244556 0 
-0.167741 -0.29634 0 
-0.168022 -0.346987 0 
-0.218886 -0.294355 0 
-0.220076 -0.34462 0 
-0.169509 -0.394746 0 
-0.170082 -0.444468 0 
-0.222186 -0.394232 0 
-0.222536 -0.44388 0 
-0.261883 -0.0920223 0 
-0.263408 -0.142302 0 
-0.310391 -0.0853127 0 
-0.313896 -0.136172 0 
-0.264884 -0.191635 0 
-0.267528 -0.242096 0 
-0.314425 -0.187471 0 
-0.316655 -0.239559 0 
-0.270396 -0.293103 0 
-0.269752 -0.342439 0 
-0.32038 -0.289665 0 
-0.320705 -0.340894 0 
-0.270615 -0.391235 0 
-0.271826 -0.441377 0 
-0.321488 -0.391127 0 
-0.323334 -0.439981 0 
-0.361395 -0.0831544 0 
-0.363506 -0.135046 0 
-0.413476 -0.0789746 0 
-0.413908 -0.133052 0 
-0.36502 -0.185408 0 
-0.366874 -0.237102 0 
-0.414836 -0.184079 0 
-0.417198 -0.235499 0 
-0.370196 -0.288668 0 
-0.371743 -0.339725 0 
-0.419197 -0.285913 0 
-0.421407 -0.33651 0 
-0.373229 -0.391626 0 
-0.375053 -0.44283 0 
-0.422912 -0.388597 0 
-0.425413 -0.439948 0 
-0.461772 -0.0776193 0 
-0.462949 -0.131665 0 
-0.513344 -0.0778115 0 
-0.513249 -0.129787 0 
-0.465602 -0.1813 0 
-0.468126 -0.231747 0 
-0.516773 -0.178736 0 
-0.517639 -0.229498 0 
-0.469562 -0.283191 0 
-0.470505 -0.334751 0 
-0.518128 -0.281207 0 
-0.52146 -0.331507 0 
-0.47277 -0.38549 0 
-0.475815 -0.437015 0 
-0.524231 -0.383465 0 
-0.526554 -0.433092 0 
VECTORS velocity double
-0.241951 -0.551341 0 
-0.0463038 -0.534112 0 
-0.0964196 -0.474332 0 
-0.206428 -0.458437 0 
-0.2786 -0.802436 0 
0.0456389 -0.317025 0 
-0.217193 -0.674915 0 
-0.324133 -0.363438 0 
-0.475584 -0.62884 0 
0.319778 -0.610322 0 
-0.181706 -0.240818 0 
0.105697 -0.284323 0 
-0.096812 -0.178703 0 
-0.104961 -0.266147 0 
-0.159688 0.203221 0 
-0.749348 0.247309 0 
-0.199303 -0.786 0 
-0.107506 -0.660055 0 
-0.162554 -0.250026 0 
-0.39969 -0.403007 0 
0.157481 -0.55565 0 
-0.121942 -0.556212 0 
-0.380619 -0.732348 0 
-0.611263 -0.577318 0 
-0.392814 -0.289209 0 
0.0833084 -0.731129 0 
-0.745814 -0.169735 0 
-0.299367 -0.70684 0 
-0.0376923 -0.203421 0 
-0.408883 0.34627 0 
-0.549008 -0.0939592 0 
-0.73029 0.283203 0 
-0.254927 -1.01596 0 
0.147437 -0.259201 0 
-0.610787 -0.12512 0 
-0.0771553 -0.446202 0 
-0.18092 -0.678264 0 
0.0418751 -0.705762 0 
-0.485751 -0.0341064 0 
-0.303985 -0.287901 0 
-0.149152 0.00283357 0 
0.13765 -0.633939 0 
-0.289051 0.211744 0 
-0.282325 -0.28615 0 
-0.440172 -0.220414 0 
-0.512918 -0.455428 0 
-0.841237 -0.587714 0 
-0.887925 -0.525793 0 
-0.142428 -0.66161 0 
-0.296331 -0.82554 0 
-0.580163 -0.585977 0 
0.000760475 -0.583446 0 
-0.387726 -0.181564 0 
-0.208509 -0.662187 0 
-0.434879 -0.448993 0 
-0.587924 -0.501128 0 
-0.24569 -0.617185 0 
0.0239841 -0.464084 0 
0.26517 -0.352332 0 
-0.0308026 -0.204102 0 
-0.281993 -0.366402 0 
-1.01455 -0.00273735 0 
-1.1326 -0.00466388 0 
-0.625786 -0.0755405 0 
SCALARS mass double 1
LOOKUP_TABLE default
0.625
0.625
0.625
0.625
0.625
0.625
0.625
0.625
0.625
0.625
0.625
0.625
0.625
0.625
0.625
0.625
0.625
0.625
0.625
0.625
0.625
0.625
0.625
0.625
0.625
0.625
0.625
0.625
0.625
0.625
0.625
0.625
0.625
0.625
0.625
0.625
0.625
0.625
0.625
0.625
0.625
0.625
0.625
0.625
0.625
0.625
0.625
0.625
0.625
0.625
0.625
0.625
0.625
0.625
0.625
0.625
0.625
0.625
0.625
0.625
0.625
0.625
0.625
0.625
SCALARS volume double 1
LOOKUP_TABLE default
0.000618563
0.000620946
0.000628788
0.000625134
0.000615361
0.000621456
0.000609404
0.000597243
0.000612822
0.00060642
0.000612457
0.000594012
0.000616283
0.000577111
0.000639339
0.000531352
0.000613531
0.000661571
0.000624972
0.000610092
0.000568493
0.000629679
0.000648506
0.000604568
0.000623179
0.000609124
0.000619712
0.000659008
0.000576481
0.000562656
0.000618407
0.00063066
0.000632374
0.000614514
0.000634778
0.000624656
0.000667483
0.000613473
0.000620375
0.000619219
0.000647239
0.000649209
0.000610037
0.000617687
0.000650324
0.000585481
0.000648907
0.000623079
0.000622374
0.000610459
0.000605924
0.000603446
0.000652447
0.000657154
0.000614457
0.000643095
0.000641569
0.000642234
0.000595854
0.000630842
0.000621928
0.000610186
0.000654076
0.000597873
VECTORS momentum double
-0.15122 -0.344588 0 
-0.0289398 -0.33382 0 
-0.0602623 -0.296458 0 
-0.129017 -0.286523 0 
-0.174125 -0.501523 0 
0.0285243 -0.198141 0 
-0.135746 -0.421822 0 
-0.202583 -0.227149 0 
-0.29724 -0.393025 0 
0.199861 -0.381451 0 
-0.113566 -0.150511 0 
0.0660609 -0.177702 0 
-0.0605075 -0.11169 0 
-0.0656006 -0.166342 0 
-0.0998048 0.127013 0 
-0.468342 0.154568 0 
-0.124564 -0.49125 0 
-0.0671915 -0.412534 0 
-0.101597 -0.156266 0 
-0.249806 -0.251879 0 
0.0984254 -0.347281 0 
-0.0762137 -0.347633 0 
-0.237887 -0.457718 0 
-0.38204 -0.360824 0 
-0.245509 -0.180756 0 
0.0520677 -0.456955 0 
-0.466134 -0.106084 0 
-0.187104 -0.441775 0 
-0.0235577 -0.127138 0 
-0.255552 0.216419 0 
-0.34313 -0.0587245 0 
-0.456431 0.177002 0 
-0.159329 -0.634976 0 
0.0921481 -0.162001 0 
-0.381742 -0.0782002 0 
-0.0482221 -0.278876 0 
-0.113075 -0.423915 0 
0.0261719 -0.441101 0 
-0.303594 -0.0213165 0 
-0.18999 -0.179938 0 
-0.0932198 0.00177098 0 
0.0860313 -0.396212 0 
-0.180657 0.13234 0 
-0.176453 -0.178844 0 
-0.275108 -0.137759 0 
-0.320574 -0.284643 0 
-0.525773 -0.367321 0 
-0.554953 -0.328621 0 
-0.0890174 -0.413506 0 
-0.185207 -0.515963 0 
-0.362602 -0.366236 0 
0.000475297 -0.364654 0 
-0.242329 -0.113477 0 
-0.130318 -0.413867 0 
-0.271799 -0.28062 0 
-0.367452 -0.313205 0 
-0.153556 -0.385741 0 
0.01499 -0.290053 0 
0.165731 -0.220207 0 
-0.0192516 -0.127564 0 
-0.176245 -0.229001 0 
-0.634093 -0.00171084 0 
-0.707877 -0.00291492 0 
-0.391116 -0.0472128 0 
VECTORS body_force double
0 -9.81 0 
0 -9.81 0 
0 -9.81 0 
0 -9.81 0 
0 -9.81 0 
0 -9.81 0 
0 -9.81 0 
0 -9.81 0 
0 -9.81 0 
0 -9.81 0 
0 -9.81 0 
0 -9.81 0 
0 -9.81 0 
0 -9.81 0 
0 -9.81 0 
0 -9.81 0 
0 -9.81 0 
0 -9.81 0 
0 -9.81 0 
0 -9.81 0 
0 -9.81 0 
0 -9.81 0 
0 -9.81 0 
0 -9.81 0 
0 -9.81 0 
0 -9.81 0 
0 -9.81 0 
0 -9.81 0 
0 -9.81 0 
0 -9.81 0 
0 -9.81 0 
0 -9.81 0 
0 -9.81 0 
0 -9.81 0 
0 -9.81 0 
0 -9.81 0 
0 -9.81 0 
0 -9.81 0 
0 -9.81 0 
0 -9.81 0 
0 -9.81 0 
0 -9.81 0 
0 -9.81 0 
0 -9.81 0 
0 -9.81 0 
0 -9.81 0 
0 -9.81 0 
0 -9.81 0 
0 -9.81 0 
0 -9.81 0 
0 -9.81 0 
0 -9.81 0 
0 -9.81 0 
0 -9.81 0 
0 -9.81 0 
0 -9.81 0 
0 -9.81 0 
0 -9.81 0 
0 -9.81 0 
0 -9.81 0 
0 -9.81 0 
0 -9.81 0 
0 -9.81 0 
0 -9.81 0 
TENSORS cauchy_stress double
-147.263 719.802 0
719.802 -1843.72 0
0 0 0

353.634 -1250.15 0
-1250.15 -1605.15 0
0 0 0

565.215 -386.811 0
-386.811 596.836 0
0 0 0

250.714 -3264.17 0
-3264.17 -209.419 0
0 0 0

-717.828 1133.91 0
1133.91 -2271.13 0
0 0 0

1573.59 -1176.62 0
-1176.62 -2667.16 0
0 0 0

-1137.49 1759.48 0
1759.48 -3722.05 0
0 0 0

-1998.94 -1096.84 0
-1096.84 -6736.98 0
0 0 0

-3268.26 -752.262 0
-752.262 -515.743 0
0 0 0

1099.63 -110.226 0
-110.226 -6903.13 0
0 0 0

524.007 194.773 0
194.773 -4422.79 0
0 0 0

-3092.54 -1986.26 0
-1986.26 -6686.67 0
0 0 0

2900 -1479.88 0
-1479.88 -5600.94 0
0 0 0

-5722.77 -5898.53 0
-5898.53 -9607.56 0
0 0 0

3914.78 682.86 0
682.86 447.268 0
0 0 0

-5305.39 -3150.54 0
-3150.54 -25911.4 0
0 0 0

937.235 3686.45 0
3686.45 -4498.92 0
0 0 0

2502.49 712.514 0
712.514 8433.13 0
0 0 0

-273.479 1014.1 0
1014.1 264.767 0
0 0 0

-1962.79 -1128.36 0
-1128.36 -2679.96 0
0 0 0

-6312.27 -933.232 0
-933.232 -11911.4 0
0 0 0

1186.6 1217.83 0
1217.83 247.623 0
0 0 0

-189.546 -1594.3 0
-1594.3 7289.33 0
0 0 0

-3736.42 2917.21 0
2917.21 -2655.51 0
0 0 0

1048.49 -724.657 0
-724.657 -1609.53 0
0 0 0

1771.82 -1517.75 0
-1517.75 -6720.01 0
0 0 0

-2153.42 -3090.46 0
-3090.46 519.49 0
0 0 0

5113.97 3271.75 0
3271.75 5075.18 0
0 0 0

-5205.01 262.637 0
262.637 -10335.3 0
0 0 0

-6884.38 -6977.54 0
-6977.54 -13323.8 0
0 0 0

1967.73 2419.34 0
2419.34 -4007 0
0 0 0

4910.03 -800.101 0
-800.101 -3176.28 0
0 0 0

17.4985 3501.29 0
3501.29 2238.23 0
0 0 0

-1201.21 1289.4 0
1289.4 -2052.68 0
0 0 0

-2170.99 -2215.22 0
-2215.22 5156.4 0
0 0 0

-3151.85 -1372.74 0
-1372.74 3045.91 0
0 0 0

6307.9 363.824 0
363.824 6338.63 0
0 0 0

-205.428 4847.16 0
4847.16 -3374.51 0
0 0 0

-1210.58 -174.587 0
-174.587 -217.943 0
0 0 0

-149.647 -1794.15 0
-1794.15 -1637.46 0
0 0 0

1484.19 -2277.72 0
-2277.72 5239.79 0
0 0 0

5568.83 3716.41 0
3716.41 1739.42 0
0 0 0

-1890.3 -509.032 0
-509.032 -2769.79 0
0 0 0

-4785.58 -4760.01 0
-4760.01 2522.02 0
0 0 0

1781.09 1803.85 0
1803.85 5857.29 0
0 0 0

-5060.9 -3887.95 0
-3887.95 -7500.26 0
0 0 0

1210.76 -1777.61 0
-1777.61 6008.11 0
0 0 0

953.75 -2156.17 0
-2156.17 -1545.76 0
0 0 0

-3978.06 992.522 0
992.522 3168.34 0
0 0 0

-3781.36 1320.5 0
1320.5 -745.574 0
0 0 0

-1351.13 -5361.61 0
-5361.61 -4609.8 0
0 0 0

-6794.61 -3326.58 0
-3326.58 45.4849 0
0 0 0

9285.89 1478.54 0
1478.54 -1020.74 0
0 0 0

4092.62 -3948.75 0
-3948.75 5554.77 0
0 0 0

1807.16 3278.39 0
3278.39 -5078.82 0
0 0 0

328.04 -5748.25 0
-5748.25 5160.68 0
0 0 0

-555.075 3452.75 0
3452.75 5586.73 0
0 0 0

3083.83 -770.121 0
-770.121 2147.06 0
0 0 0

-7922 1590.35 0
1590.35 -1261.83 0
0 0 0

501.783 -3196.13 0
-3196.13 1287.29 0
0 0 0

-726.03 2200.61 0
2200.61 -221.625 0
0 0 0

-1817.2 -117.481 0
-117.481 -2795.71 0
0 0 0

4782.98 -901.454 0
-901.454 3961.68 0
0 0 0

-4138.34 3151.18 0
3151.18 -4394.92 0
0 0 0

TENSORS velocity_gradient double
-0.237422 -1.20183 0
-1.0701 0.691779 0
0 0 0

0.00415999 0.237258 0
-0.303314 -0.519589 0
0 0 0

-0.0601165 -1.43425 0
0.731007 1.0292 0
0 0 0

-0.173123 1.0004 0
0.805214 -1.10771 0
0 0 0

0.53487 0.297351 0
-0.16194 -0.536517 0
0 0 0

0.826466 -2.14915 0
-0.48402 -2.12397 0
0 0 0

0.836196 1.22941 0
-0.0774058 -1.30807 0
0 0 0

1.65337 -1.83502 0
-0.75695 -2.39363 0
0 0 0

1.77536 -2.13686 0
-0.94468 -2.2266 0
0 0 0

2.58038 1.43768 0
-1.80821 -6.14857 0
0 0 0

1.97622 -1.80915 0
-0.907355 -2.40568 0
0 0 0

2.60375 2.99402 0
-1.39071 -7.78111 0
0 0 0

4.04101 1.54041 0
-2.77101 -6.38512 0
0 0 0

4.3656 -3.04411 0
-3.23567 -1.8063 0
0 0 0

4.01594 3.10944 0
-2.74693 -7.89196 0
0 0 0

4.4162 -5.81194 0
-3.27318 0.245147 0
0 0 0

0.386803 -1.92307 0
-0.069192 1.234 0
0 0 0

0.371336 1.36011 0
-0.917221 -1.41873 0
0 0 0

0.954671 -2.09551 0
-0.633746 -0.00673152 0
0 0 0

0.828087 -0.631417 0
-2.13371 -0.734921 0
0 0 0

0.778648 2.02613 0
-1.32309 -1.93689 0
0 0 0

1.05258 -0.800156 0
-1.37878 -2.26067 0
0 0 0

0.807273 2.10777 0
-2.03982 -1.64727 0
0 0 0

0.939155 0.402345 0
-1.531 -1.54826 0
0 0 0

1.81378 -1.30944 0
-0.577116 -2.251 0
0 0 0

2.52355 3.38386 0
0.529605 -7.39464 0
0 0 0

1.6996 -0.478887 0
-0.696815 -1.38034 0
0 0 0

2.48638 3.19942 0
0.438392 -4.85248 0
0 0 0

2.88014 4.10527 0
2.45034 -8.10375 0
0 0 0

2.84456 -5.65569 0
3.67622 -0.994017 0
0 0 0

2.87768 4.472 0
2.43624 -5.99664 0
0 0 0

2.88162 -5.26018 0
3.67794 -2.89987 0
0 0 0

1.01535 -2.14118 0
-0.53565 -1.51116 0
0 0 0

1.40127 -1.03835 0
-1.14528 -1.51606 0
0 0 0

0.955142 -1.4003 0
-0.634966 -1.55875 0
0 0 0

1.85567 -1.14542 0
-0.399589 -1.55886 0
0 0 0

0.94338 1.90644 0
-1.07857 -1.35818 0
0 0 0

0.0336413 1.06716 0
-1.00632 -1.09627 0
0 0 0

1.06872 0.82635 0
-0.601706 -1.60479 0
0 0 0

-0.104286 0.47196 0
-0.882299 -1.27981 0
0 0 0

-0.449483 0.0562984 0
-0.703541 -0.701601 0
0 0 0

-0.172327 3.65466 0
-0.143699 -2.77169 0
0 0 0

-0.433332 -0.0852462 0
-0.730129 -0.468578 0
0 0 0

-0.324 3.1089 0
-0.296313 -0.975194 0
0 0 0

2.3017 5.73536 0
1.99205 -3.78189 0
0 0 0

3.86141 -10.0786 0
3.31418 -3.71652 0
0 0 0

1.9926 8.20676 0
1.72924 -1.68061 0
0 0 0

3.84378 -6.59227 0
3.30023 -4.28772 0
0 0 0

1.34283 -0.773112 0
0.537992 -1.36377 0
0 0 0

1.62296 -0.764864 0
1.03535 -1.35447 0
0 0 0

1.94361 -1.08785 0
2.19422 -1.17281 0
0 0 0

1.4313 -1.08662 0
2.38283 -1.17327 0
0 0 0

0.575767 -0.408711 0
1.64195 -1.85452 0
0 0 0

-0.885181 -0.527695 0
2.27896 -1.85943 0
0 0 0

0.473583 -1.73463 0
2.47158 -1.82699 0
0 0 0

-0.840615 -1.78104 0
2.52271 -1.82518 0
0 0 0

-0.14889 0.180407 0
0.338649 -1.02388 0
0 0 0

1.22141 2.62365 0
-2.46358 -1.05697 0
0 0 0

-0.25924 1.48191 0
0.555013 -3.57575 0
0 0 0

1.14303 1.66358 0
-2.19443 -3.93195 0
0 0 0

1.3424 9.65439 0
-4.23902 -0.984326 0
0 0 0

1.1239 -1.35382 0
-5.34802 -2.90582 0
0 0 0

1.35481 9.48325 0
-4.1236 -2.57595 0
0 0 0

1.18042 5.97641 0
-5.45706 -2.61902 0
0 0 0

SCALARS active double 1
LOOKUP_TABLE default
1
1
1
1
1
1
1
1
1
1
1
1
1
1
1
1
1
1
1
1
1
1
1
1
1
1
1
1
1
1
1
1
1
1
1
1
1
1
1
1
1
1
1
1
1
1
1
1
1
1
1
1
1
1
1
1
1
1
1
1
1
1
1
1
SCALARS extent double 1
LOOKUP_TABLE default
0.0125
0.0125
0.0125
0.0125
0.0125
0.0125
0.0125
0.0125
0.0125
0.0125
0.0125
0.0125
0.0125
0.0125
0.0125
0.0125
0.0125
0.0125
0.0125
0.0125
0.0125
0.0125
0.0125
0.0125
0.0125
0.0125
0.0125
0.0125
0.0125
0.0125
0.0125
0.0125
0.0125
0.0125
0.0125
0.0125
0.0125
0.0125
0.0125
0.0125
0.0125
0.0125
0.0125
0.0125
0.0125
0.0125
0.0125
0.0125
0.0125
0.0125
0.0125
0.0125
0.0125
0.0125
0.0125
0.0125
0.0125
0.0125
0.0125
0.0125
0.0125
0.0125
0.0125
0.0125
SCALARS pressure double 1
LOOKUP_TABLE default
995.492
625.759
-581.025
-20.6474
1494.48
546.787
2429.77
4367.96
1892
2901.75
1949.39
4889.6
1350.47
7665.16
-2181.03
15608.4
1780.84
-5467.81
4.3558
2321.38
9111.85
-717.113
-3549.89
3195.97
280.521
2474.1
816.963
-5094.57
7770.15
10104.1
1019.64
-866.875
-1127.87
1626.95
-1492.7
52.9695
-6323.26
1789.97
714.262
893.552
-3361.99
-3654.12
2330.04
1131.78
-3819.19
6280.58
-3609.43
296.003
404.86
2263.46
2980.46
3374.56
-4132.57
-4823.7
1635.83
-2744.36
-2515.83
-2615.44
4591.91
-894.534
473.827
2306.45
-4372.33
4266.63
SCALARS density double 1
LOOKUP_TABLE default
1010.41
1006.53
993.976
999.785
1015.66
1005.7
1025.59
1046.47
1019.87
1030.64
1020.48
1052.17
1014.14
1082.98
977.573
1176.25
1018.69
944.721
1000.05
1024.44
1099.4
992.57
963.754
1033.8
1002.92
1026.06
1008.53
948.396
1084.16
1110.8
1010.66
991.025
988.339
1017.06
984.596
1000.55
936.354
1018.79
1007.46
1009.34
965.639
962.71
1024.53
1011.84
961.059
1067.5
963.158
1003.08
1004.22
1023.82
1031.48
1035.72
957.932
951.071
1017.16
971.862
974.175
973.166
1048.91
990.74
1004.94
1024.28
955.546
1045.37
