# vtk DataFile Version 3.0
Frame: 17, Time: 0.289
ASCII
DATASET UNSTRUCTURED_GRID
POINTS 64 double
0.921191 0.123715 0 
0.897882 0.115507 0 
0.913012 0.14801 0 
0.890118 0.138941 0 
0.87197 0.107914 0 
0.849296 0.0990002 0 
0.864058 0.131615 0 
0.840442 0.122609 0 
0.824352 0.0902667 0 
0.798896 0.0837285 0 
0.816356 0.114078 0 
0.791488 0.107887 0 
0.775698 0.0750349 0 
0.75116 0.06751 0 
0.767272 0.0990977 0 
0.74304 0.0912442 0 
0.904391 0.172249 0 
0.881346 0.162638 0 
0.897656 0.194917 0 
0.874065 0.186568 0 
0.857263 0.155474 0 
0.833054 0.146401 0 
0.849299 0.178948 0 
0.824991 0.169968 0 
0.808242 0.137978 0 
0.7845 0.131583 0 
0.801135 0.162543 0 
0.77625 0.155364 0 
0.760572 0.122931 0 
0.736008 0.115719 0 
0.752385 0.146946 0 
0.728319 0.139508 0 
0.889519 0.218689 0 
0.865466 0.209762 0 
0.882092 0.242516 0 
0.858158 0.233924 0 
0.84112 0.202473 0 
0.817324 0.194202 0 
0.834037 0.22648 0 
0.809683 0.218348 0 
0.793198 0.186567 0 
0.769004 0.178991 0 
0.785914 0.210233 0 
0.761758 0.202651 0 
0.74487 0.171054 0 
0.720038 0.163308 0 
0.737689 0.194921 0 
0.713352 0.187135 0 
0.874307 0.266114 0 
0.850432 0.257686 0 
0.866618 0.289754 0 
0.842578 0.281684 0 
0.826514 0.249851 0 
0.802091 0.242201 0 
0.818525 0.273633 0 
0.793972 0.265979 0 
0.778251 0.234069 0 
0.753837 0.226396 0 
0.769985 0.257906 0 
0.746034 0.250608 0 
0.729651 0.218842 0 
0.705711 0.210825 0 
0.721403 0.242992 0 
0.69751 0.234942 0 
CELLS 64 128
1 0
1 1
1 2
1 3
1 4
1 5
1 6
1 7
1 8
1 9
1 10
1 11
1 12
1 13
1 14
1 15
1 16
1 17
1 18
1 19
1 20
1 21
1 22
1 23
1 24
1 25
1 26
1 27
1 28
1 29
1 30
1 31
1 32
1 33
1 34
1 35
1 36
1 37
1 38
1 39
1 40
1 41
1 42
1 43
1 44
1 45
1 46
1 47
1 48
1 49
1 50
1 51
1 52
1 53
1 54
1 55
1 56
1 57
1 58
1 59
1 60
1 61
1 62
1 63
CELL_TYPES 64
1
1
1
1
1
1
1
1
1
1
1
1
1
1
1
1
1
1
1
1
1
1
1
1
1
1
1
1
1
1
1
1
1
1
1
1
1
1
1
1
1
1
1
1
1
1
1
1
1
1
1
1
1
1
1
1
1
1
1
1
1
1
1
1
POINT_DATA 64
VECTORS displacement double
0.308691 -0.188785 0 
0.285382 -0.221993 0 
0.275512 -0.16449 0 
0.252618 -0.198559 0 
0.25947 -0.254586 0 
0.236796 -0.2885 0 
0.226558 -0.230885 0 
0.202942 -0.264891 0 
0.211852 -0.322233 0 
0.186396 -0.353772 0 
0.178856 -0.298422 0 
0.153988 -0.329613 0 
0.163198 -0.387465 0 
0.13866 -0.41999 0 
0.129772 -0.363402 0 
0.10554 -0.396256 0 
0.241891 -0.140251 0 
0.218846 -0.174862 0 
0.210156 -0.117583 0 
0.186565 -0.150932 0 
0.194763 -0.207026 0 
0.170554 -0.241099 0 
0.161799 -0.183552 0 
0.137491 -0.217532 0 
0.145742 -0.274522 0 
0.122 -0.305917 0 
0.113635 -0.249957 0 
0.0887496 -0.282136 0 
0.0980717 -0.339569 0 
0.0735082 -0.371781 0 
0.0648852 -0.315554 0 
0.040819 -0.347992 0 
0.177019 -0.0938113 0 
0.152966 -0.127738 0 
0.144592 -0.069984 0 
0.120658 -0.103576 0 
0.12862 -0.160027 0 
0.104824 -0.193298 0 
0.0965371 -0.13602 0 
0.0721834 -0.169152 0 
0.0806975 -0.225933 0 
0.0565043 -0.258509 0 
0.048414 -0.202267 0 
0.0242584 -0.234849 0 
0.0323701 -0.291446 0 
0.00753781 -0.324192 0 
0.000189364 -0.267579 0 
-0.0241482 -0.300365 0 
0.111807 -0.0463858 0 
0.0879321 -0.0798143 0 
0.0791184 -0.0227464 0 
0.0550778 -0.055816 0 
0.0640139 -0.112649 0 
0.0395914 -0.145299 0 
0.0310248 -0.0888666 0 
0.0064717 -0.121521 0 
0.0157508 -0.178431 0 
-0.00866349 -0.211104 0 
-0.0175152 -0.154594 0 
-0.0414655 -0.186892 0 
-0.032849 -0.243658 0 
-0.0567887 -0.276675 0 
-0.0660974 -0.219508 0 
-0.0899904 -0.252558 0 
VECTORS velocity double
1.47216 -0.743295 0 
1.76331 -1.4137 0 
0.950661 -0.853612 0 
1.28379 -1.83928 0 
1.58102 -1.56182 0 
1.60569 -1.88141 0 
1.32418 -1.78216 0 
1.05604 -1.75296 0 
1.89922 -1.82254 0 
1.66553 -2.11292 0 
1.3647 -1.80674 0 
1.34076 -2.10853 0 
2.12433 -2.00283 0 
2.17028 -2.52196 0 
1.39547 -1.93266 0 
1.72358 -2.81776 0 
0.881695 -1.20379 0 
0.887183 -1.59785 0 
1.03556 -0.958675 0 
1.19202 -1.47463 0 
1.34946 -1.65414 0 
1.39763 -1.59986 0 
1.2001 -1.50677 0 
1.228 -1.62329 0 
1.65354 -1.94631 0 
1.52739 -2.14107 0 
1.29282 -1.89481 0 
1.12122 -1.96045 0 
1.58786 -2.09262 0 
1.82121 -2.71983 0 
1.3296 -2.15232 0 
1.36675 -3.00218 0 
0.683844 -1.487 0 
0.823211 -1.76899 0 
0.397473 -1.04147 0 
0.341404 -1.59158 0 
0.869751 -1.52799 0 
0.99245 -1.72217 0 
0.443004 -1.43485 0 
0.446898 -1.86289 0 
1.09492 -2.18158 0 
1.00558 -2.38796 0 
0.731589 -2.35158 0 
0.682449 -2.54362 0 
1.11187 -2.53294 0 
1.14738 -3.10779 0 
0.717436 -2.38618 0 
0.815859 -2.86454 0 
0.387427 -1.29461 0 
0.635826 -1.74771 0 
-0.15362 -1.29858 0 
-0.0235635 -1.87688 0 
0.733049 -1.94997 0 
0.810101 -2.02348 0 
0.102875 -2.02929 0 
-0.0443743 -2.08398 0 
0.836393 -2.34203 0 
0.716805 -2.56626 0 
0.226527 -2.27989 0 
0.462049 -2.73676 0 
0.944126 -2.31935 0 
1.09877 -3.1203 0 
0.303357 -2.42481 0 
0.533357 -3.10484 0 
SCALARS mass double 1
LOOKUP_TABLE default
0.625
0.625
0.625
0.625
0.625
0.625
0.625
0.625
0.625
0.625
0.625
0.625
0.625
0.625
0.625
0.625
0.625
0.625
0.625
0.625
0.625
0.625
0.625
0.625
0.625
0.625
0.625
0.625
0.625
0.625
0.625
0.625
0.625
0.625
0.625
0.625
0.625
0.625
0.625
0.625
0.625
0.625
0.625
0.625
0.625
0.625
0.625
0.625
0.625
0.625
0.625
0.625
0.625
0.625
0.625
0.625
0.625
0.625
0.625
0.625
0.625
0.625
0.625
0.625
SCALARS volume double 1
LOOKUP_TABLE default
0.000622491
0.00062597
0.000638862
0.000624353
0.000632799
0.000629416
0.000621322
0.00062985
0.000636821
0.000622859
0.000622604
0.000628029
0.000622586
0.000627144
0.000633931
0.000625788
0.000611549
0.000641768
0.000631491
0.000620855
0.000617537
0.000627709
0.000639404
0.000636757
0.000625675
0.000638627
0.000644048
0.000625271
0.000621081
0.000626152
0.000617961
0.000624674
0.000614092
0.000630816
0.000634075
0.000616949
0.000625279
0.000615347
0.000624555
0.000628071
0.000621399
0.000627288
0.000639027
0.000621973
0.000629318
0.000633046
0.000618504
0.000629882
0.000617537
0.00062394
0.000626927
0.000617131
0.000622784
0.000628077
0.000632014
0.00062619
0.000619519
0.000628895
0.000626399
0.000632987
0.000624872
0.000623521
0.000625607
0.000629724
VECTORS momentum double
0.920102 -0.464559 0 
1.10207 -0.883566 0 
0.594163 -0.533508 0 
0.802369 -1.14955 0 
0.988138 -0.976136 0 
1.00356 -1.17588 0 
0.827615 -1.11385 0 
0.660023 -1.0956 0 
1.18701 -1.13909 0 
1.04096 -1.32058 0 
0.85294 -1.12921 0 
0.837974 -1.31783 0 
1.32771 -1.25177 0 
1.35642 -1.57622 0 
0.872168 -1.20791 0 
1.07724 -1.7611 0 
0.551059 -0.752367 0 
0.554489 -0.998657 0 
0.647225 -0.599172 0 
0.745013 -0.921644 0 
0.843412 -1.03384 0 
0.873521 -0.999914 0 
0.750065 -0.94173 0 
0.767503 -1.01456 0 
1.03346 -1.21644 0 
0.954618 -1.33817 0 
0.808011 -1.18426 0 
0.700762 -1.22528 0 
0.992415 -1.30789 0 
1.13825 -1.69989 0 
0.831001 -1.3452 0 
0.854221 -1.87636 0 
0.427402 -0.929373 0 
0.514507 -1.10562 0 
0.248421 -0.650921 0 
0.213377 -0.994741 0 
0.543595 -0.954991 0 
0.620281 -1.07636 0 
0.276877 -0.896784 0 
0.279311 -1.1643 0 
0.684325 -1.36349 0 
0.628489 -1.49247 0 
0.457243 -1.46974 0 
0.426531 -1.58976 0 
0.694916 -1.58309 0 
0.717114 -1.94237 0 
0.448397 -1.49136 0 
0.509912 -1.79034 0 
0.242142 -0.809133 0 
0.397391 -1.09232 0 
-0.0960124 -0.811613 0 
-0.0147272 -1.17305 0 
0.458156 -1.21873 0 
0.506313 -1.26467 0 
0.0642967 -1.26831 0 
-0.0277339 -1.30249 0 
0.522745 -1.46377 0 
0.448003 -1.60391 0 
0.141579 -1.42493 0 
0.288781 -1.71048 0 
0.590079 -1.44959 0 
0.686732 -1.95019 0 
0.189598 -1.51551 0 
0.333348 -1.94052 0 
VECTORS body_force double
0 -9.81 0 
0 -9.81 0 
0 -9.81 0 
0 -9.81 0 
0 -9.81 0 
0 -9.81 0 
0 -9.81 0 
0 -9.81 0 
0 -9.81 0 
0 -9.81 0 
0 -9.81 0 
0 -9.81 0 
0 -9.81 0 
0 -9.81 0 
0 -9.81 0 
0 -9.81 0 
0 -9.81 0 
0 -9.81 0 
0 -9.81 0 
0 -9.81 0 
0 -9.81 0 
0 -9.81 0 
0 -9.81 0 
0 -9.81 0 
0 -9.81 0 
0 -9.81 0 
0 -9.81 0 
0 -9.81 0 
0 -9.81 0 
0 -9.81 0 
0 -9.81 0 
0 -9.81 0 
0 -9.81 0 
0 -9.81 0 
0 -9.81 0 
0 -9.81 0 
0 -9.81 0 
0 -9.81 0 
0 -9.81 0 
0 -9.81 0 
0 -9.81 0 
0 -9.81 0 
0 -9.81 0 
0 -9.81 0 
0 -9.81 0 
0 -9.81 0 
0 -9.81 0 
0 -9.81 0 
0 -9.81 0 
0 -9.81 0 
0 -9.81 0 
0 -9.81 0 
0 -9.81 0 
0 -9.81 0 
0 -9.81 0 
0 -9.81 0 
0 -9.81 0 
0 -9.81 0 
0 -9.81 0 
0 -9.81 0 
0 -9.81 0 
0 -9.81 0 
0 -9.81 0 
0 -9.81 0 
TENSORS cauchy_stress double
-1580.04 744.647 0
744.647 806.524 0
0 0 0

814.069 1095.01 0
1095.01 -515.974 0
0 0 0

2448.65 -2520.77 0
-2520.77 1769.84 0
0 0 0

716.947 377.507 0
377.507 -916.173 0
0 0 0

1393.56 1558.1 0
1558.1 991.385 0
0 0 0

1507.65 518.71 0
518.71 -153.533 0
0 0 0

1250.98 -3266.79 0
-3266.79 -2386.02 0
0 0 0

221.705 -882.083 0
-882.083 1264.78 0
0 0 0

2357.6 -381.889 0
-381.889 1245.73 0
0 0 0

-11.9413 -445.923 0
-445.923 -647.973 0
0 0 0

1957.24 -1200.34 0
-1200.34 -2695.86 0
0 0 0

1932.73 591.432 0
591.432 -1002.91 0
0 0 0

-1540.05 929.352 0
929.352 795.742 0
0 0 0

576.404 -184.064 0
-184.064 82.2442 0
0 0 0

880.018 983.313 0
983.313 1848.5 0
0 0 0

438.499 -948.25 0
-948.25 -196.301 0
0 0 0

-706.485 2481.18 0
2481.18 -3477.49 0
0 0 0

2525.66 814.966 0
814.966 2565.62 0
0 0 0

1765.77 -1248 0
-1248 221.008 0
0 0 0

-134.159 52.1231 0
52.1231 -1145.42 0
0 0 0

-1190.42 -122.877 0
-122.877 -1119.58 0
0 0 0

1874.28 3852.83 0
3852.83 -1042.65 0
0 0 0

4107.37 100.971 0
100.971 274.462 0
0 0 0

1584.59 -1468.5 0
-1468.5 1999.36 0
0 0 0

-1149.94 -892.637 0
-892.637 1357.48 0
0 0 0

2090.76 -249.391 0
-249.391 2057.09 0
0 0 0

3567.9 -2443.35 0
-2443.35 2205.51 0
0 0 0

2176.26 1019.61 0
1019.61 -2092.79 0
0 0 0

-597.409 1612.7 0
1612.7 -612.273 0
0 0 0

35.3179 834.37 0
834.37 318.781 0
0 0 0

-829.902 -2239.06 0
-2239.06 -1348.3 0
0 0 0

968.749 -486.51 0
-486.51 -1069.1 0
0 0 0

-439.822 2280.1 0
2280.1 -2946.23 0
0 0 0

-207.525 631.834 0
631.834 1988.72 0
0 0 0

1698.97 577.976 0
577.976 1073.13 0
0 0 0

-1693.82 296.806 0
296.806 -799.503 0
0 0 0

608.506 -275.087 0
-275.087 -522.786 0
0 0 0

-1943.59 347.836 0
347.836 -1049.84 0
0 0 0

1503.77 581.223 0
581.223 -1640.67 0
0 0 0

-1689.42 1646.46 0
1646.46 2632.16 0
0 0 0

-295.487 951.947 0
951.947 -815.776 0
0 0 0

991.36 -301.469 0
-301.469 -288.57 0
0 0 0

2094.83 -1985.38 0
-1985.38 2173.36 0
0 0 0

962.34 166.94 0
166.94 -1896.02 0
0 0 0

186.759 -82.674 0
-82.674 1137.15 0
0 0 0

3195.91 1294.3 0
1294.3 -736.016 0
0 0 0

-1711.74 1194.27 0
1194.27 -297.396 0
0 0 0

1650.75 151.786 0
151.786 -154.409 0
0 0 0

-11.8277 84.0347 0
84.0347 -2298.16 0
0 0 0

331.838 889.28 0
889.28 -658.378 0
0 0 0

331.969 -52.4091 0
-52.4091 260.032 0
0 0 0

-3576.83 1452.3 0
1452.3 1140.38 0
0 0 0

1599.98 -2424.19 0
-2424.19 -2283.17 0
0 0 0

1351.42 500.871 0
500.871 -407.086 0
0 0 0

1843.29 1082.59 0
1082.59 302.91 0
0 0 0

-632.14 929.346 0
929.346 997.99 0
0 0 0

640.341 985.14 0
985.14 -2334.35 0
0 0 0

1061.34 -1176.68 0
-1176.68 133.25 0
0 0 0

-667.166 513.923 0
513.923 1097.23 0
0 0 0

2885.77 -1375.5 0
-1375.5 -443.683 0
0 0 0

-413.129 -473.245 0
-473.245 373.66 0
0 0 0

799.499 -510.537 0
-510.537 -1254.99 0
0 0 0

-904.756 991.408 0
991.408 1091.38 0
0 0 0

317.548 463.207 0
463.207 1130.67 0
0 0 0

TENSORS velocity_gradient double
-0.764159 -7.43891 0
10.9934 -0.122497 0
0 0 0

-0.276203 -7.19562 0
8.24185 0.703662 0
0 0 0

-0.687562 -6.40662 0
9.81938 -0.227922 0
0 0 0

-1.54558 -6.82376 0
6.68402 0.943787 0
0 0 0

0.308657 -5.72092 0
7.62457 1.5032 0
0 0 0

-0.997968 -4.37552 0
5.52584 1.43766 0
0 0 0

-1.1166 -5.2531 0
6.90161 1.7405 0
0 0 0

-1.41971 -4.5364 0
4.93259 2.02767 0
0 0 0

-1.88007 -5.34014 0
4.77134 0.360995 0
0 0 0

-2.44257 -6.32987 0
6.43498 0.488829 0
0 0 0

-1.45598 -4.64077 0
4.85572 1.80651 0
0 0 0

-1.74927 -5.39514 0
7.65932 1.18047 0
0 0 0

-2.61624 -6.58339 0
6.98152 0.319222 0
0 0 0

-1.49101 -6.69705 0
7.31753 -0.033968 0
0 0 0

-2.19099 -6.90113 0
7.33905 0.0955475 0
0 0 0

-0.951188 -6.6331 0
8.81292 -0.31639 0
0 0 0

-0.67304 -5.16661 0
6.59286 0.270762 0
0 0 0

-1.50188 -6.0067 0
6.11275 1.29921 0
0 0 0

-0.145394 -6.08265 0
5.15665 0.580771 0
0 0 0

-0.443718 -6.32229 0
5.64111 1.43987 0
0 0 0

-1.79894 -7.07424 0
6.24124 1.76605 0
0 0 0

-1.24524 -5.78478 0
5.28721 1.47874 0
0 0 0

-0.395573 -7.39028 0
6.78414 1.56522 0
0 0 0

-0.507662 -8.30477 0
6.71644 0.0334544 0
0 0 0

-1.35275 -4.67538 0
5.07448 1.73316 0
0 0 0

-0.122113 -5.86567 0
8.81441 0.846454 0
0 0 0

0.0762477 -9.05005 0
7.95609 -1.45883 0
0 0 0

0.950841 -9.02976 0
9.64204 -1.77468 0
0 0 0

-0.701065 -7.51107 0
8.40342 -0.321588 0
0 0 0

-0.539806 -8.57351 0
9.64984 -1.20982 0
0 0 0

0.519067 -8.35292 0
9.78396 -1.11407 0
0 0 0

0.135759 -8.78507 0
10.3353 -1.42449 0
0 0 0

-0.0391134 -9.36954 0
5.62075 -0.584077 0
0 0 0

0.0155314 -9.21965 0
5.52621 -0.843384 0
0 0 0

-0.187296 -9.29836 0
5.8789 -0.644156 0
0 0 0

-0.134907 -9.17565 0
5.78646 -0.919503 0
0 0 0

0.338204 -8.64532 0
8.66743 -0.65348 0
0 0 0

0.309932 -8.49582 0
8.3674 -0.610481 0
0 0 0

-0.30943 -8.63302 0
8.81575 -1.05347 0
0 0 0

-0.0731424 -7.90485 0
8.79065 -1.13081 0
0 0 0

0.760085 -9.13539 0
9.77865 -1.69903 0
0 0 0

0.805196 -8.98666 0
9.74634 -1.80555 0
0 0 0

0.348479 -7.22764 0
9.42409 -0.673571 0
0 0 0

0.538347 -6.79149 0
9.64171 -0.0731927 0
0 0 0

-0.137473 -8.7447 0
8.81059 -1.42061 0
0 0 0

0.0190515 -8.21857 0
9.36808 0.430591 0
0 0 0

-0.617196 -7.87318 0
7.16162 -0.480274 0
0 0 0

-0.485505 -8.08131 0
7.59236 0.91369 0
0 0 0

-0.307645 -7.56181 0
6.41687 0.266023 0
0 0 0

-0.447575 -7.57385 0
7.47425 -0.258938 0
0 0 0

-0.418877 -7.52653 0
7.05594 0.0633242 0
0 0 0

0.223497 -7.71936 0
8.48283 -0.289347 0
0 0 0

-0.750163 -8.3403 0
8.82974 -0.452576 0
0 0 0

-0.684408 -7.73732 0
8.68334 -1.01889 0
0 0 0

-0.054397 -8.57348 0
8.57729 0.00100086 0
0 0 0

-1.98034 -8.76462 0
7.75021 0.378118 0
0 0 0

-0.311348 -7.02092 0
8.64324 -0.428944 0
0 0 0

-0.292169 -6.37971 0
8.36477 0.323245 0
0 0 0

-1.41785 -7.04469 0
7.94449 0.972172 0
0 0 0

-1.46877 -5.3529 0
6.90238 1.20765 0
0 0 0

-0.819998 -6.13984 0
6.78983 0.523116 0
0 0 0

-0.520777 -5.98182 0
6.52754 0.563775 0
0 0 0

-1.06867 -5.47578 0
6.7299 0.704958 0
0 0 0

0.257744 -5.79889 0
5.21701 0.485991 0
0 0 0

SCALARS active double 1
LOOKUP_TABLE default
1
1
1
1
1
1
1
1
1
1
1
1
1
1
1
1
1
1
1
1
1
1
1
1
1
1
1
1
1
1
1
1
1
1
1
1
1
1
1
1
1
1
1
1
1
1
1
1
1
1
1
1
1
1
1
1
1
1
1
1
1
1
1
1
SCALARS extent double 1
LOOKUP_TABLE default
0.0125
0.0125
0.0125
0.0125
0.0125
0.0125
0.0125
0.0125
0.0125
0.0125
0.0125
0.0125
0.0125
0.0125
0.0125
0.0125
0.0125
0.0125
0.0125
0.0125
0.0125
0.0125
0.0125
0.0125
0.0125
0.0125
0.0125
0.0125
0.0125
0.0125
0.0125
0.0125
0.0125
0.0125
0.0125
0.0125
0.0125
0.0125
0.0125
0.0125
0.0125
0.0125
0.0125
0.0125
0.0125
0.0125
0.0125
0.0125
0.0125
0.0125
0.0125
0.0125
0.0125
0.0125
0.0125
0.0125
0.0125
0.0125
0.0125
0.0125
0.0125
0.0125
0.0125
0.0125
SCALARS pressure double 1
LOOKUP_TABLE default
386.76
-149.047
-2109.25
99.6131
-1192.47
-677.057
567.518
-743.24
-1801.67
329.957
369.308
-464.907
372.153
-329.324
-1364.26
-121.099
2091.99
-2545.64
-993.391
639.79
1155
-415.812
-2190.91
-1791.98
-103.766
-2073.93
-2886.71
-41.7355
604.841
-177.05
1089.1
50.1778
1693.02
-890.597
-1386.05
1246.66
-42.8601
1496.72
68.4483
-471.373
555.632
-351.395
-2134.09
466.838
-661.957
-1229.95
1004.57
-748.169
1155
163.27
-296.001
1218.23
341.594
-472.165
-1073.1
-182.925
847.007
-597.296
-215.03
-1221.05
19.7341
227.744
-93.3138
-724.108
SCALARS density double 1
LOOKUP_TABLE default
1004.03
998.451
978.303
1001.04
987.675
992.983
1005.92
992.3
981.437
1003.44
1003.85
995.177
1003.88
996.581
985.912
998.741
1022
973.873
989.722
1006.68
1012.08
995.685
977.472
981.536
998.921
978.662
970.424
999.566
1006.31
998.16
1011.39
1000.52
1017.76
990.781
985.688
1013.05
999.554
1015.69
1000.71
995.11
1005.8
996.352
978.05
1004.87
993.139
987.29
1010.5
992.249
1012.08
1001.7
996.926
1012.75
1003.56
995.102
988.902
998.099
1008.85
993.807
997.766
987.381
1000.21
1002.37
999.03
992.498
