# vtk DataFile Version 3.0
Frame: 10, Time: 0.17
ASCII
DATASET UNSTRUCTURED_GRID
POINTS 64 double
0.707704 0.222175 0 
0.68734 0.236491 0 
0.723365 0.242193 0 
0.703689 0.256076 0 
0.6671 0.252378 0 
0.647245 0.265258 0 
0.683063 0.272949 0 
0.661682 0.286265 0 
0.6258 0.279429 0 
0.605759 0.295086 0 
0.640404 0.3001 0 
0.621115 0.315726 0 
0.585315 0.30887 0 
0.565585 0.324712 0 
0.600163 0.329595 0 
0.580115 0.344752 0 
0.739307 0.26228 0 
0.718529 0.275996 0 
0.753328 0.282553 0 
0.733352 0.296886 0 
0.698458 0.291797 0 
0.676421 0.305564 0 
0.712963 0.311782 0 
0.6914 0.326107 0 
0.655058 0.320762 0 
0.636056 0.335704 0 
0.671171 0.341232 0 
0.650358 0.356413 0 
0.614878 0.349197 0 
0.594771 0.36435 0 
0.629059 0.370245 0 
0.608735 0.384911 0 
0.766954 0.305375 0 
0.746363 0.31927 0 
0.78068 0.326648 0 
0.760078 0.340251 0 
0.725898 0.333206 0 
0.705143 0.347456 0 
0.739655 0.354199 0 
0.718922 0.368412 0 
0.68454 0.362491 0 
0.664081 0.376964 0 
0.698209 0.382936 0 
0.677788 0.397888 0 
0.64322 0.391424 0 
0.622227 0.406199 0 
0.657185 0.412211 0 
0.63658 0.426691 0 
0.795742 0.347652 0 
0.774443 0.361355 0 
0.809843 0.368168 0 
0.788018 0.382385 0 
0.753847 0.37547 0 
0.733564 0.389651 0 
0.767161 0.39689 0 
0.746904 0.411393 0 
0.712908 0.403932 0 
0.692017 0.418796 0 
0.726312 0.425437 0 
0.706193 0.43958 0 
0.670944 0.433044 0 
0.65055 0.447773 0 
0.685299 0.453584 0 
0.665227 0.468485 0 
CELLS 64 128
1 0
1 1
1 2
1 3
1 4
1 5
1 6
1 7
1 8
1 9
1 10
1 11
1 12
1 13
1 14
1 15
1 16
1 17
1 18
1 19
1 20
1 21
1 22
1 23
1 24
1 25
1 26
1 27
1 28
1 29
1 30
1 31
1 32
1 33
1 34
1 35
1 36
1 37
1 38
1 39
1 40
1 41
1 42
1 43
1 44
1 45
1 46
1 47
1 48
1 49
1 50
1 51
1 52
1 53
1 54
1 55
1 56
1 57
1 58
1 59
1 60
1 61
1 62
1 63
CELL_TYPES 64
1
1
1
1
1
1
1
1
1
1
1
1
1
1
1
1
1
1
1
1
1
1
1
1
1
1
1
1
1
1
1
1
1
1
1
1
1
1
1
1
1
1
1
1
1
1
1
1
1
1
1
1
1
1
1
1
1
1
1
1
1
1
1
1
POINT_DATA 64
VECTORS displacement double
0.095204 -0.0903251 0 
0.0748398 -0.101009 0 
0.0858651 -0.0703069 0 
0.0661888 -0.0814235 0 
0.0545997 -0.110122 0 
0.0347452 -0.122242 0 
0.0455627 -0.0895515 0 
0.0241823 -0.101235 0 
0.0132999 -0.133071 0 
-0.00674085 -0.142414 0 
0.00290378 -0.1124 0 
-0.0163853 -0.121774 0 
-0.0271847 -0.15363 0 
-0.0469151 -0.162788 0 
-0.0373374 -0.132905 0 
-0.0573853 -0.142748 0 
0.0768065 -0.0502196 0 
0.0560288 -0.0615036 0 
0.0658279 -0.0299466 0 
0.0458515 -0.0406141 0 
0.0359582 -0.0707032 0 
0.0139214 -0.0819363 0 
0.0254633 -0.0507181 0 
0.0039 -0.0613934 0 
-0.00744235 -0.0917385 0 
-0.0264442 -0.101796 0 
-0.0163286 -0.0712681 0 
-0.0371419 -0.0810868 0 
-0.0476222 -0.113303 0 
-0.0677286 -0.12315 0 
-0.0584412 -0.0922554 0 
-0.0787653 -0.102589 0 
0.0544543 -0.00712457 0 
0.0338632 -0.0182298 0 
0.0431803 0.0141482 0 
0.0225778 0.00275085 0 
0.0133975 -0.0292945 0 
-0.00735737 -0.0400442 0 
0.00215491 -0.00830141 0 
-0.0185784 -0.0190877 0 
-0.0279597 -0.0500092 0 
-0.0484194 -0.0605362 0 
-0.0392915 -0.0295642 0 
-0.0597117 -0.0396125 0 
-0.0692804 -0.0710765 0 
-0.0902725 -0.0813007 0 
-0.0803155 -0.0502888 0 
-0.10092 -0.0608086 0 
0.0332416 0.035152 0 
0.0119425 0.023855 0 
0.0223426 0.0556681 0 
0.000517754 0.0448846 0 
-0.0086534 0.0129699 0 
-0.0289362 0.00215124 0 
-0.0203395 0.0343895 0 
-0.0405955 0.0238925 0 
-0.0495922 -0.00856834 0 
-0.0704828 -0.0187042 0 
-0.061188 0.0129375 0 
-0.081307 0.00207996 0 
-0.091556 -0.0294559 0 
-0.11195 -0.0397265 0 
-0.102201 -0.00891634 0 
-0.122273 -0.0190153 0 
VECTORS velocity double
2.53456 -0.778465 0 
1.72692 -1.30433 0 
1.52376 -0.0523913 0 
1.72292 -1.05018 0 
1.68172 -0.915664 0 
1.9373 -1.20597 0 
1.73485 -0.646347 0 
1.3646 -0.704347 0 
1.76986 -1.373 0 
1.36456 -1.50454 0 
1.26763 -0.830448 0 
1.30337 -0.999338 0 
1.78133 -1.72033 0 
1.2186 -1.71836 0 
1.37124 -1.05827 0 
0.805478 -1.60776 0 
1.72982 -0.601573 0 
1.44219 -0.989673 0 
2.057 -0.317897 0 
1.86216 -0.639152 0 
1.84703 -0.92281 0 
1.69913 -0.978277 0 
1.69676 -0.846252 0 
1.47014 -0.921155 0 
1.48358 -1.23743 0 
1.2117 -1.30229 0 
1.2374 -0.866197 0 
0.877301 -0.935529 0 
1.28907 -1.28147 0 
0.845507 -1.62924 0 
1.01576 -1.03732 0 
0.315437 -1.53941 0 
1.47523 -0.0294587 0 
1.16666 -0.455315 0 
1.44781 0.600094 0 
0.825702 -0.278683 0 
1.10801 -0.634432 0 
0.971234 -0.728932 0 
0.811506 -0.508299 0 
0.763719 -0.575161 0 
0.796027 -0.870126 0 
0.67545 -0.909541 0 
0.55622 -0.833081 0 
0.338524 -0.851896 0 
0.829177 -0.94462 0 
0.158861 -1.49499 0 
0.371087 -0.842331 0 
0.117752 -1.28711 0 
1.76544 0.206961 0 
0.909694 -0.315591 0 
0.918756 0.160204 0 
0.339193 0.272177 0 
0.763965 -0.782913 0 
0.881991 -0.507987 0 
0.537244 -0.301553 0 
0.216895 -0.296494 0 
0.582388 -0.575117 0 
0.19951 -0.748189 0 
-0.157283 -0.406072 0 
-0.0248833 -0.747865 0 
0.220621 -0.822973 0 
-0.131037 -1.40761 0 
-0.238997 -0.408925 0 
-0.918167 -0.920442 0 
SCALARS mass double 1
LOOKUP_TABLE default
0.625
0.625
0.625
0.625
0.625
0.625
0.625
0.625
0.625
0.625
0.625
0.625
0.625
0.625
0.625
0.625
0.625
0.625
0.625
0.625
0.625
0.625
0.625
0.625
0.625
0.625
0.625
0.625
0.625
0.625
0.625
0.625
0.625
0.625
0.625
0.625
0.625
0.625
0.625
0.625
0.625
0.625
0.625
0.625
0.625
0.625
0.625
0.625
0.625
0.625
0.625
0.625
0.625
0.625
0.625
0.625
0.625
0.625
0.625
0.625
0.625
0.625
0.625
0.625
SCALARS volume double 1
LOOKUP_TABLE default
0.000623531
0.000636074
0.000621847
0.000630158
0.000624176
0.000626378
0.000628496
0.000631932
0.000625432
0.000620716
0.000623796
0.000621154
0.000623409
0.000632174
0.000629218
0.0006189
0.000593636
0.000653571
0.000667553
0.00063742
0.000606305
0.000623193
0.00064121
0.000672919
0.000632932
0.000629809
0.000641872
0.000629651
0.000605298
0.000609435
0.000631152
0.000625333
0.000630302
0.000627463
0.000631339
0.000618159
0.000604014
0.000622625
0.00062195
0.000646909
0.000605103
0.000630936
0.000654542
0.000628818
0.000650513
0.000629435
0.000621859
0.000624942
0.000634895
0.000635917
0.0006222
0.000626857
0.000621301
0.000631385
0.000624818
0.000614315
0.000636306
0.000629782
0.000638955
0.000636771
0.000621643
0.000629296
0.000617924
0.000632132
VECTORS momentum double
1.5841 -0.486541 0 
1.07932 -0.815206 0 
0.952353 -0.0327445 0 
1.07682 -0.656362 0 
1.05107 -0.57229 0 
1.21081 -0.753734 0 
1.08428 -0.403967 0 
0.852876 -0.440217 0 
1.10616 -0.858123 0 
0.852851 -0.940336 0 
0.792272 -0.51903 0 
0.814609 -0.624586 0 
1.11333 -1.07521 0 
0.761624 -1.07398 0 
0.857023 -0.661416 0 
0.503424 -1.00485 0 
1.08114 -0.375983 0 
0.901366 -0.618546 0 
1.28563 -0.198686 0 
1.16385 -0.39947 0 
1.1544 -0.576756 0 
1.06196 -0.611423 0 
1.06048 -0.528908 0 
0.918838 -0.575722 0 
0.927238 -0.773395 0 
0.75731 -0.813933 0 
0.773373 -0.541373 0 
0.548313 -0.584706 0 
0.80567 -0.800922 0 
0.528442 -1.01827 0 
0.634847 -0.648323 0 
0.197148 -0.962128 0 
0.922021 -0.0184117 0 
0.729163 -0.284572 0 
0.904884 0.375059 0 
0.516064 -0.174177 0 
0.692508 -0.39652 0 
0.607021 -0.455583 0 
0.507191 -0.317687 0 
0.477324 -0.359475 0 
0.497517 -0.543829 0 
0.422156 -0.568463 0 
0.347638 -0.520676 0 
0.211577 -0.532435 0 
0.518236 -0.590387 0 
0.0992883 -0.934366 0 
0.23193 -0.526457 0 
0.0735947 -0.804444 0 
1.1034 0.129351 0 
0.568559 -0.197244 0 
0.574223 0.100127 0 
0.211995 0.17011 0 
0.477478 -0.489321 0 
0.551244 -0.317492 0 
0.335778 -0.188471 0 
0.135559 -0.185309 0 
0.363992 -0.359448 0 
0.124693 -0.467618 0 
-0.0983018 -0.253795 0 
-0.0155521 -0.467416 0 
0.137888 -0.514358 0 
-0.081898 -0.879754 0 
-0.149373 -0.255578 0 
-0.573854 -0.575276 0 
VECTORS body_force double
0 -9.81 0 
0 -9.81 0 
0 -9.81 0 
0 -9.81 0 
0 -9.81 0 
0 -9.81 0 
0 -9.81 0 
0 -9.81 0 
0 -9.81 0 
0 -9.81 0 
0 -9.81 0 
0 -9.81 0 
0 -9.81 0 
0 -9.81 0 
0 -9.81 0 
0 -9.81 0 
0 -9.81 0 
0 -9.81 0 
0 -9.81 0 
0 -9.81 0 
0 -9.81 0 
0 -9.81 0 
0 -9.81 0 
0 -9.81 0 
0 -9.81 0 
0 -9.81 0 
0 -9.81 0 
0 -9.81 0 
0 -9.81 0 
0 -9.81 0 
0 -9.81 0 
0 -9.81 0 
0 -9.81 0 
0 -9.81 0 
0 -9.81 0 
0 -9.81 0 
0 -9.81 0 
0 -9.81 0 
0 -9.81 0 
0 -9.81 0 
0 -9.81 0 
0 -9.81 0 
0 -9.81 0 
0 -9.81 0 
0 -9.81 0 
0 -9.81 0 
0 -9.81 0 
0 -9.81 0 
0 -9.81 0 
0 -9.81 0 
0 -9.81 0 
0 -9.81 0 
0 -9.81 0 
0 -9.81 0 
0 -9.81 0 
0 -9.81 0 
0 -9.81 0 
0 -9.81 0 
0 -9.81 0 
0 -9.81 0 
0 -9.81 0 
0 -9.81 0 
0 -9.81 0 
0 -9.81 0 
TENSORS cauchy_stress double
1051.13 -1862.26 0
-1862.26 -1503.81 0
0 0 0

3691.3 934.748 0
934.748 -313.684 0
0 0 0

-2638.55 3221.26 0
3221.26 1665.82 0
0 0 0

1608.72 -231.692 0
-231.692 -28.0389 0
0 0 0

893.25 2993.27 0
2993.27 -1147.09 0
0 0 0

1608.77 285.439 0
285.439 -1185.18 0
0 0 0

-2629.81 1001.87 0
1001.87 3702.63 0
0 0 0

1142.1 969.497 0
969.497 978.969 0
0 0 0

495.725 1335.72 0
1335.72 -362.884 0
0 0 0

-1501.25 1207.38 0
1207.38 178.516 0
0 0 0

-2059.43 -1630.25 0
-1630.25 1688.67 0
0 0 0

-867.794 1077.01 0
1077.01 -319.267 0
0 0 0

1520.72 1379.59 0
1379.59 -2010.74 0
0 0 0

767.317 -997.788 0
-997.788 1427.49 0
0 0 0

1023.84 856.346 0
856.346 269.63 0
0 0 0

-2371.67 -1684.61 0
-1684.61 485.591 0
0 0 0

-2237.64 -530.042 0
-530.042 -7663.41 0
0 0 0

5005.6 -1520.58 0
-1520.58 3590.55 0
0 0 0

2248.54 647.179 0
647.179 10418.1 0
0 0 0

-2173.72 942.379 0
942.379 5957.69 0
0 0 0

-1007.08 -1239.77 0
-1239.77 -4832.96 0
0 0 0

5399.89 -2975.93 0
-2975.93 -5956.73 0
0 0 0

1800.18 -363.884 0
-363.884 3123.84 0
0 0 0

5591.7 783.091 0
783.091 8614.73 0
0 0 0

1002.75 2703.48 0
2703.48 1422.49 0
0 0 0

1144.18 846.313 0
846.313 329.975 0
0 0 0

-2185.09 153.551 0
153.551 7307.71 0
0 0 0

2849.25 -1844.92 0
-1844.92 -1423.47 0
0 0 0

-1959.36 -798.094 0
-798.094 -4200.5 0
0 0 0

-1219.74 -906.277 0
-906.277 -3630.29 0
0 0 0

-1849.09 312.636 0
312.636 3732.86 0
0 0 0

-582.622 -582.83 0
-582.83 684.999 0
0 0 0

-2007.29 -1017.93 0
-1017.93 3631.88 0
0 0 0

-1876.07 138.922 0
138.922 2632.41 0
0 0 0

-61.8513 1332.73 0
1332.73 2002.45 0
0 0 0

-92.0186 1161.45 0
1161.45 -2024.38 0
0 0 0

-6064.86 -288.72 0
-288.72 -503.395 0
0 0 0

-1933.96 -2444.28 0
-2444.28 1201.69 0
0 0 0

-637.727 1150.27 0
1150.27 -303.156 0
0 0 0

3690.93 1108.12 0
1108.12 2934.84 0
0 0 0

-5674.22 -1999.69 0
-1999.69 -547.399 0
0 0 0

-592.455 -132.05 0
-132.05 2410.45 0
0 0 0

1820.66 619.848 0
619.848 7061 0
0 0 0

14.055 -287.434 0
-287.434 1157.19 0
0 0 0

1774.66 -124.845 0
-124.845 5919.37 0
0 0 0

1622.9 -1260.72 0
-1260.72 -262.985 0
0 0 0

-296.034 -605.919 0
-605.919 -672.813 0
0 0 0

-2041.23 97.8872 0
97.8872 2023.49 0
0 0 0

1741.55 1101.55 0
1101.55 1279.13 0
0 0 0

2271.82 -316.538 0
-316.538 1058.22 0
0 0 0

-663.294 -1793.51 0
-1793.51 -200.161 0
0 0 0

1577.72 -312.842 0
-312.842 -1007.09 0
0 0 0

-5485.77 293.448 0
293.448 4344.13 0
0 0 0

-1434.8 168.869 0
168.869 3389.36 0
0 0 0

-484.702 -1292.41 0
-1292.41 428.681 0
0 0 0

-3184.88 2160.1 0
2160.1 -131.125 0
0 0 0

2252.04 -1129.17 0
-1129.17 1195.69 0
0 0 0

396.686 -965.165 0
-965.165 1068.96 0
0 0 0

49.1122 1283.53 0
1283.53 4197.47 0
0 0 0

-747.451 90.1331 0
90.1331 4335.74 0
0 0 0

-331.912 -535.591 0
-535.591 -703.842 0
0 0 0

-2468.13 -1036.68 0
-1036.68 3785.5 0
0 0 0

983.828 849.117 0
849.117 -3173.58 0
0 0 0

180.193 172.11 0
172.11 2001.8 0
0 0 0

TENSORS velocity_gradient double
-0.153788 -9.53102 0
10.2184 -0.150653 0
0 0 0

0.628781 -8.76642 0
4.25701 1.3442 0
0 0 0

-0.0564688 -9.41279 0
8.98294 -1.31411 0
0 0 0

-0.00353766 -2.83161 0
6.67708 0.605125 0
0 0 0

0.164835 -4.8059 0
3.46092 0.991649 0
0 0 0

0.123129 -4.76087 0
6.28214 0.234028 0
0 0 0

0.773837 -3.37437 0
3.47303 0.534546 0
0 0 0

1.26013 -4.1485 0
3.55715 0.400635 0
0 0 0

0.806599 -5.86204 0
7.06151 -0.188846 0
0 0 0

1.38674 -6.77422 0
6.90767 -0.485411 0
0 0 0

1.53522 -7.15588 0
7.33538 -0.140696 0
0 0 0

1.12853 -7.78091 0
7.13846 0.0472317 0
0 0 0

-0.103944 -7.22503 0
5.49983 -0.0634252 0
0 0 0

0.144343 -7.53013 0
5.97947 -0.652812 0
0 0 0

0.358848 -7.13806 0
6.43401 0.260208 0
0 0 0

0.277809 -7.65043 0
6.45937 -0.131291 0
0 0 0

-0.167189 -3.20387 0
8.35609 0.350677 0
0 0 0

-0.353713 -2.92519 0
8.24506 0.51656 0
0 0 0

-0.631622 -3.25891 0
11.4753 0.228839 0
0 0 0

-0.614691 -5.75699 0
8.09835 0.555238 0
0 0 0

0.955906 -2.8903 0
4.70951 0.609518 0
0 0 0

1.35032 -10.4496 0
3.81522 0.164421 0
0 0 0

-0.713729 -11.9395 0
8.08914 0.881397 0
0 0 0

0.169094 -11.326 0
4.37768 0.581735 0
0 0 0

0.561801 -9.24815 0
4.80201 -0.359583 0
0 0 0

0.31922 -8.39543 0
6.76518 -0.236202 0
0 0 0

-0.70863 -10.168 0
4.79562 0.0303358 0
0 0 0

-0.603808 -11.579 0
6.06298 -0.0123728 0
0 0 0

-0.0926047 -9.75759 0
6.64941 -0.396109 0
0 0 0

-1.46505 -10.9158 0
5.66372 -0.782905 0
0 0 0

-0.17397 -11.641 0
7.01112 -0.542711 0
0 0 0

-0.144082 -11.6817 0
7.35242 -1.00677 0
0 0 0

0.0578953 -10.4707 0
12.7022 -0.2562 0
0 0 0

-0.549751 -12.0133 0
8.46055 0.910085 0
0 0 0

1.68016 -9.80131 0
11.0151 -1.40346 0
0 0 0

2.75412 -11.387 0
9.89583 0.249118 0
0 0 0

-0.793571 -11.989 0
8.1411 0.913598 0
0 0 0

-0.769156 -11.5254 0
7.50406 1.07272 0
0 0 0

-0.608547 -9.76003 0
7.81899 -0.463871 0
0 0 0

-0.00766772 -10.3448 0
6.92632 0.688603 0
0 0 0

-1.04204 -11.2969 0
5.52426 1.25413 0
0 0 0

-0.911997 -11.4781 0
6.08542 0.472196 0
0 0 0

-0.40139 -11.105 0
6.20144 1.59021 0
0 0 0

-0.686505 -11.2284 0
6.80346 0.574015 0
0 0 0

-0.131461 -11.612 0
7.49654 -0.210965 0
0 0 0

-0.398755 -10.6499 0
7.63098 -0.0757184 0
0 0 0

-0.386606 -11.5484 0
7.0018 -0.185419 0
0 0 0

-1.17182 -11.2031 0
7.52682 -0.150255 0
0 0 0

2.74768 -8.95817 0
9.14398 -2.14504 0
0 0 0

3.30781 -9.29603 0
9.1826 -1.30527 0
0 0 0

0.890798 -7.59323 0
5.29974 -0.884735 0
0 0 0

2.97862 -9.51196 0
9.27834 -1.24247 0
0 0 0

2.37881 -9.07014 0
8.54838 -1.28736 0
0 0 0

0.933032 -9.68424 0
5.53267 -0.290081 0
0 0 0

3.15505 -8.50538 0
9.09805 -1.98849 0
0 0 0

2.26192 -10.0873 0
5.24052 -1.44943 0
0 0 0

1.34241 -10.4718 0
4.7864 -0.137617 0
0 0 0

-0.228846 -10.6797 0
7.03357 -0.0104435 0
0 0 0

1.4171 -10.4279 0
4.14265 -0.713564 0
0 0 0

1.43346 -10.4649 0
3.76381 -0.14631 0
0 0 0

0.129388 -11.2001 0
7.10573 -0.11527 0
0 0 0

-0.715047 -12.1455 0
7.66006 -0.143887 0
0 0 0

0.535889 -12.8204 0
7.27382 1.13141 0
0 0 0

0.63956 -13.2861 0
7.52361 0.994543 0
0 0 0

SCALARS active double 1
LOOKUP_TABLE default
1
1
1
1
1
1
1
1
1
1
1
1
1
1
1
1
1
1
1
1
1
1
1
1
1
1
1
1
1
1
1
1
1
1
1
1
1
1
1
1
1
1
1
1
1
1
1
1
1
1
1
1
1
1
1
1
1
1
1
1
1
1
1
1
SCALARS extent double 1
LOOKUP_TABLE default
0.0125
0.0125
0.0125
0.0125
0.0125
0.0125
0.0125
0.0125
0.0125
0.0125
0.0125
0.0125
0.0125
0.0125
0.0125
0.0125
0.0125
0.0125
0.0125
0.0125
0.0125
0.0125
0.0125
0.0125
0.0125
0.0125
0.0125
0.0125
0.0125
0.0125
0.0125
0.0125
0.0125
0.0125
0.0125
0.0125
0.0125
0.0125
0.0125
0.0125
0.0125
0.0125
0.0125
0.0125
0.0125
0.0125
0.0125
0.0125
0.0125
0.0125
0.0125
0.0125
0.0125
0.0125
0.0125
0.0125
0.0125
0.0125
0.0125
0.0125
0.0125
0.0125
0.0125
0.0125
SCALARS pressure double 1
LOOKUP_TABLE default
226.342
-1688.81
486.369
-790.339
126.918
-211.795
-536.411
-1060.53
-66.4206
661.365
185.381
593.53
245.01
-1097.4
-646.737
943.041
4950.53
-4298.07
-6333.32
-1891.98
2920.02
278.421
-2462.01
-7103.21
-1212.62
-737.079
-2561.31
-712.89
3079.93
2425.01
-941.888
-51.1885
-812.296
-378.171
-970.301
1058.2
3284.13
366.137
470.441
-3312.89
3110.81
-908.996
-4440.83
-585.623
-3847.01
-679.957
484.424
8.86786
-1510.34
-1665.02
431.727
-285.315
570.82
-977.281
28.0103
1658
-1723.87
-732.823
-2123.29
-1794.14
517.877
-658.684
1094.87
-1091
SCALARS density double 1
LOOKUP_TABLE default
1002.36
982.59
1005.07
991.814
1001.32
997.8
994.437
989.031
999.309
1006.9
1001.93
1006.19
1002.55
988.652
993.297
1009.86
1052.83
956.284
936.256
980.516
1030.83
1002.9
974.72
928.789
987.468
992.364
973.714
992.613
1032.55
1025.54
990.252
999.468
991.588
996.075
989.96
1011.07
1034.74
1003.82
1004.9
966.133
1032.88
990.591
954.866
993.928
960.781
992.953
1005.05
1000.09
984.415
982.833
1004.5
997.037
1005.95
989.888
1000.29
1017.39
982.232
992.408
978.16
981.514
1005.4
993.173
1011.45
988.718
