# vtk DataFile Version 3.0
Frame: 26, Time: 0.442
ASCII
DATASET UNSTRUCTURED_GRID
POINTS 64 double
0.861273 0.0845343 0 
0.836957 0.0885052 0 
0.866218 0.109406 0 
0.8414 0.113445 0 
0.811441 0.0927951 0 
0.787432 0.0947609 0 
0.815535 0.118259 0 
0.790939 0.121776 0 
0.760697 0.0984036 0 
0.734069 0.105028 0 
0.766265 0.125043 0 
0.741549 0.130754 0 
0.710513 0.11186 0 
0.684982 0.116907 0 
0.717196 0.136707 0 
0.691124 0.141169 0 
0.871003 0.133755 0 
0.845755 0.138533 0 
0.879826 0.156794 0 
0.85523 0.163106 0 
0.821315 0.143376 0 
0.796162 0.147003 0 
0.830402 0.168135 0 
0.804415 0.170922 0 
0.771432 0.150503 0 
0.748345 0.154458 0 
0.780043 0.175168 0 
0.755378 0.180034 0 
0.724033 0.159184 0 
0.698318 0.165239 0 
0.730057 0.183203 0 
0.705512 0.189277 0 
0.885162 0.181979 0 
0.860717 0.187513 0 
0.895112 0.205855 0 
0.867682 0.21192 0 
0.836145 0.193296 0 
0.810516 0.196808 0 
0.841253 0.217267 0 
0.815246 0.222577 0 
0.785317 0.20124 0 
0.76068 0.206143 0 
0.791084 0.226453 0 
0.766439 0.230606 0 
0.735326 0.208456 0 
0.710613 0.213774 0 
0.741278 0.233381 0 
0.716512 0.238044 0 
0.901098 0.23089 0 
0.873265 0.234992 0 
0.904219 0.258805 0 
0.878518 0.259553 0 
0.848021 0.240772 0 
0.82308 0.247842 0 
0.853833 0.264602 0 
0.827573 0.271463 0 
0.798646 0.252005 0 
0.772849 0.255966 0 
0.802148 0.276097 0 
0.776398 0.280838 0 
0.746834 0.259513 0 
0.720964 0.262121 0 
0.750478 0.284957 0 
0.72494 0.286784 0 
CELLS 64 128
1 0
1 1
1 2
1 3
1 4
1 5
1 6
1 7
1 8
1 9
1 10
1 11
1 12
1 13
1 14
1 15
1 16
1 17
1 18
1 19
1 20
1 21
1 22
1 23
1 24
1 25
1 26
1 27
1 28
1 29
1 30
1 31
1 32
1 33
1 34
1 35
1 36
1 37
1 38
1 39
1 40
1 41
1 42
1 43
1 44
1 45
1 46
1 47
1 48
1 49
1 50
1 51
1 52
1 53
1 54
1 55
1 56
1 57
1 58
1 59
1 60
1 61
1 62
1 63
CELL_TYPES 64
1
1
1
1
1
1
1
1
1
1
1
1
1
1
1
1
1
1
1
1
1
1
1
1
1
1
1
1
1
1
1
1
1
1
1
1
1
1
1
1
1
1
1
1
1
1
1
1
1
1
1
1
1
1
1
1
1
1
1
1
1
1
1
1
POINT_DATA 64
VECTORS displacement double
0.248773 -0.227966 0 
0.224457 -0.248995 0 
0.228718 -0.203094 0 
0.2039 -0.224055 0 
0.198941 -0.269705 0 
0.174932 -0.292739 0 
0.178035 -0.244241 0 
0.153439 -0.265724 0 
0.148197 -0.314096 0 
0.121569 -0.332472 0 
0.128765 -0.287457 0 
0.104049 -0.306746 0 
0.0980133 -0.35064 0 
0.0724824 -0.370593 0 
0.079696 -0.325793 0 
0.0536244 -0.346331 0 
0.208503 -0.178745 0 
0.183255 -0.198967 0 
0.192326 -0.155706 0 
0.16773 -0.174394 0 
0.158815 -0.219124 0 
0.133662 -0.240497 0 
0.142902 -0.194365 0 
0.116915 -0.216578 0 
0.108932 -0.261997 0 
0.0858451 -0.283042 0 
0.0925427 -0.237332 0 
0.0678778 -0.257466 0 
0.0615326 -0.303316 0 
0.0358185 -0.322261 0 
0.042557 -0.279297 0 
0.0180123 -0.298223 0 
0.172662 -0.130521 0 
0.148217 -0.149987 0 
0.157612 -0.106645 0 
0.130182 -0.12558 0 
0.123645 -0.169204 0 
0.0980159 -0.190692 0 
0.103753 -0.145233 0 
0.0777462 -0.164923 0 
0.0728173 -0.21126 0 
0.0481803 -0.231357 0 
0.053584 -0.186047 0 
0.0289385 -0.206894 0 
0.0228257 -0.254044 0 
-0.00188739 -0.273726 0 
0.00377752 -0.229119 0 
-0.0209877 -0.249456 0 
0.138598 -0.0816104 0 
0.110765 -0.102508 0 
0.116719 -0.0536947 0 
0.0910177 -0.0779465 0 
0.0855213 -0.121728 0 
0.0605799 -0.139658 0 
0.0663328 -0.0978983 0 
0.0400735 -0.116037 0 
0.0361463 -0.160495 0 
0.0103488 -0.181534 0 
0.014648 -0.136403 0 
-0.0111016 -0.156662 0 
-0.0156661 -0.202987 0 
-0.041536 -0.225379 0 
-0.0370218 -0.177543 0 
-0.0625596 -0.200716 0 
VECTORS velocity double
-1.55602 -0.353638 0 
-1.788 -0.37718 0 
-1.28195 -0.529176 0 
-1.60933 -0.302128 0 
-1.98295 -0.0268949 0 
-1.84854 0.308729 0 
-1.3328 -0.407167 0 
-1.67441 0.0432191 0 
-1.77515 0.739085 0 
-2.12644 0.198386 0 
-1.95491 0.736043 0 
-2.24288 0.629063 0 
-2.10663 -0.0267684 0 
-2.43625 1.08308 0 
-2.48055 0.599327 0 
-1.90564 1.12458 0 
-0.907066 -0.972238 0 
-1.36564 -0.203804 0 
-0.849827 -0.71615 0 
-1.07005 -0.284049 0 
-1.08865 -0.600037 0 
-1.35364 -0.197946 0 
-1.62671 -0.698759 0 
-1.91027 -0.504729 0 
-1.32809 0.407436 0 
-1.49035 0.0475635 0 
-1.69878 0.142724 0 
-1.57749 0.0534752 0 
-1.85696 -0.504503 0 
-1.39569 0.603598 0 
-1.62466 -0.288319 0 
-1.81519 0.77496 0 
-1.10096 -1.45338 0 
-0.460899 -0.24494 0 
-1.09427 -0.969093 0 
-1.05101 0.0352448 0 
-1.13159 -0.832512 0 
-1.26734 -0.887976 0 
-1.17987 -0.590489 0 
-1.16083 -0.528719 0 
-1.25708 -0.264347 0 
-1.30928 -0.268776 0 
-1.07026 -0.364114 0 
-1.15965 -0.794073 0 
-1.44633 0.16018 0 
-1.8148 0.774597 0 
-1.55699 -0.330757 0 
-1.79828 0.275898 0 
-1.58756 -1.74007 0 
-2.03416 -0.27789 0 
0.421982 -1.42452 0 
-0.981588 -0.9342 0 
-1.26297 -0.315431 0 
-0.654564 0.119975 0 
-0.858387 -0.786728 0 
-1.10633 -0.760936 0 
-1.22728 -0.163136 0 
-1.27338 -0.553225 0 
-1.77391 -0.18907 0 
-1.74267 -0.0973775 0 
-0.99806 -0.169414 0 
-1.09637 0.336873 0 
-1.42107 -0.419247 0 
-1.29536 -0.044814 0 
SCALARS mass double 1
LOOKUP_TABLE default
0.625
0.625
0.625
0.625
0.625
0.625
0.625
0.625
0.625
0.625
0.625
0.625
0.625
0.625
0.625
0.625
0.625
0.625
0.625
0.625
0.625
0.625
0.625
0.625
0.625
0.625
0.625
0.625
0.625
0.625
0.625
0.625
0.625
0.625
0.625
0.625
0.625
0.625
0.625
0.625
0.625
0.625
0.625
0.625
0.625
0.625
0.625
0.625
0.625
0.625
0.625
0.625
0.625
0.625
0.625
0.625
0.625
0.625
0.625
0.625
0.625
0.625
0.625
0.625
SCALARS volume double 1
LOOKUP_TABLE default
0.000630184
0.000630506
0.000611093
0.000629774
0.000616614
0.000635595
0.000622423
0.000628099
0.000638402
0.000646192
0.000654604
0.000626074
0.000643045
0.000630101
0.00062705
0.000629549
0.000617412
0.00065268
0.000652607
0.000632757
0.000622883
0.000598418
0.000672973
0.000622653
0.000611296
0.000610781
0.000666568
0.000655749
0.000606567
0.000630443
0.000639237
0.000648453
0.000581188
0.000605624
0.000613384
0.000658971
0.00064247
0.000667802
0.000638779
0.00066274
0.000662928
0.000640133
0.000636771
0.000637073
0.00060345
0.00061406
0.000648732
0.000637418
0.000679646
0.000632226
0.000649378
0.00060976
0.000626248
0.000631369
0.000654424
0.000643343
0.000622772
0.000657118
0.000651033
0.000643421
0.000645629
0.000611659
0.00061974
0.000613625
VECTORS momentum double
-0.972509 -0.221024 0 
-1.1175 -0.235738 0 
-0.801221 -0.330735 0 
-1.00583 -0.18883 0 
-1.23934 -0.0168093 0 
-1.15534 0.192956 0 
-0.832998 -0.254479 0 
-1.04651 0.0270119 0 
-1.10947 0.461928 0 
-1.32903 0.123991 0 
-1.22182 0.460027 0 
-1.4018 0.393164 0 
-1.31664 -0.0167302 0 
-1.52265 0.676928 0 
-1.55034 0.374579 0 
-1.19102 0.702861 0 
-0.566916 -0.607649 0 
-0.853524 -0.127377 0 
-0.531142 -0.447594 0 
-0.668779 -0.177531 0 
-0.680406 -0.375023 0 
-0.846025 -0.123716 0 
-1.01669 -0.436725 0 
-1.19392 -0.315455 0 
-0.830054 0.254648 0 
-0.93147 0.0297272 0 
-1.06174 0.0892025 0 
-0.985929 0.033422 0 
-1.1606 -0.315314 0 
-0.872307 0.377249 0 
-1.01541 -0.180199 0 
-1.1345 0.48435 0 
-0.688101 -0.90836 0 
-0.288062 -0.153087 0 
-0.683917 -0.605683 0 
-0.65688 0.022028 0 
-0.707242 -0.52032 0 
-0.792086 -0.554985 0 
-0.737418 -0.369056 0 
-0.725516 -0.33045 0 
-0.785678 -0.165217 0 
-0.818301 -0.167985 0 
-0.668913 -0.227571 0 
-0.72478 -0.496296 0 
-0.903954 0.100113 0 
-1.13425 0.484123 0 
-0.973121 -0.206723 0 
-1.12392 0.172436 0 
-0.992223 -1.08754 0 
-1.27135 -0.173681 0 
0.263739 -0.890327 0 
-0.613493 -0.583875 0 
-0.789354 -0.197144 0 
-0.409102 0.0749845 0 
-0.536492 -0.491705 0 
-0.691455 -0.475585 0 
-0.767049 -0.10196 0 
-0.79586 -0.345765 0 
-1.10869 -0.118169 0 
-1.08917 -0.0608609 0 
-0.623787 -0.105884 0 
-0.685228 0.210546 0 
-0.888166 -0.262029 0 
-0.809603 -0.0280087 0 
VECTORS body_force double
0 -9.81 0 
0 -9.81 0 
0 -9.81 0 
0 -9.81 0 
0 -9.81 0 
0 -9.81 0 
0 -9.81 0 
0 -9.81 0 
0 -9.81 0 
0 -9.81 0 
0 -9.81 0 
0 -9.81 0 
0 -9.81 0 
0 -9.81 0 
0 -9.81 0 
0 -9.81 0 
0 -9.81 0 
0 -9.81 0 
0 -9.81 0 
0 -9.81 0 
0 -9.81 0 
0 -9.81 0 
0 -9.81 0 
0 -9.81 0 
0 -9.81 0 
0 -9.81 0 
0 -9.81 0 
0 -9.81 0 
0 -9.81 0 
0 -9.81 0 
0 -9.81 0 
0 -9.81 0 
0 -9.81 0 
0 -9.81 0 
0 -9.81 0 
0 -9.81 0 
0 -9.81 0 
0 -9.81 0 
0 -9.81 0 
0 -9.81 0 
0 -9.81 0 
0 -9.81 0 
0 -9.81 0 
0 -9.81 0 
0 -9.81 0 
0 -9.81 0 
0 -9.81 0 
0 -9.81 0 
0 -9.81 0 
0 -9.81 0 
0 -9.81 0 
0 -9.81 0 
0 -9.81 0 
0 -9.81 0 
0 -9.81 0 
0 -9.81 0 
0 -9.81 0 
0 -9.81 0 
0 -9.81 0 
0 -9.81 0 
0 -9.81 0 
0 -9.81 0 
0 -9.81 0 
0 -9.81 0 
TENSORS cauchy_stress double
930.706 1900.08 0
1900.08 657.936 0
0 0 0

858.696 -1939.42 0
-1939.42 828.068 0
0 0 0

-1838.71 -2074.29 0
-2074.29 -2488.72 0
0 0 0

-313.702 -1532.51 0
-1532.51 1777.1 0
0 0 0

-2262.53 529.608 0
529.608 -335.283 0
0 0 0

2627.88 -551.271 0
-551.271 604.817 0
0 0 0

-3597.32 -2641.48 0
-2641.48 2802.83 0
0 0 0

-4100 844.665 0
844.665 5051.07 0
0 0 0

3344.48 -2510.45 0
-2510.45 735.554 0
0 0 0

1908.91 68.4837 0
68.4837 4503.52 0
0 0 0

1089.13 -713.835 0
-713.835 7810.76 0
0 0 0

-95.464 1942.09 0
1942.09 425.515 0
0 0 0

1658.51 -1900.37 0
-1900.37 3815.04 0
0 0 0

1488.29 -1250.99 0
-1250.99 74.7865 0
0 0 0

1486.53 12.271 0
12.271 -856.697 0
0 0 0

-425.338 -1668.04 0
-1668.04 1819.93 0
0 0 0

1990.56 -1701.53 0
-1701.53 -4339.76 0
0 0 0

6552.31 1075.77 0
1075.77 1781.52 0
0 0 0

2022.78 -1535.78 0
-1535.78 6289.56 0
0 0 0

2056.61 3191.27 0
3191.27 315.559 0
0 0 0

-235.116 4417.41 0
4417.41 -417.479 0
0 0 0

-74.7951 8454.16 0
8454.16 -8283.21 0
0 0 0

6155.39 3460.95 0
3460.95 8066.58 0
0 0 0

420.689 7028.36 0
7028.36 -1144.32 0
0 0 0

-3966.96 6695.21 0
6695.21 -296.718 0
0 0 0

-3888.63 4163.03 0
4163.03 -536.947 0
0 0 0

7090.85 4107.76 0
4107.76 5291.93 0
0 0 0

2382.09 2292.03 0
2292.03 6853.7 0
0 0 0

484.179 1654.3 0
1654.3 -6241.09 0
0 0 0

235.241 -1833.7 0
-1833.7 1432.15 0
0 0 0

4592.38 4314.27 0
4314.27 -260.809 0
0 0 0

2964.25 -549.349 0
-549.349 4119.96 0
0 0 0

-9690.2 -1947.08 0
-1947.08 -4286.28 0
0 0 0

-5354.45 -221.659 0
-221.659 -701.878 0
0 0 0

2982.39 2979.97 0
2979.97 -6590.28 0
0 0 0

9857.79 1434.58 0
1434.58 320.771 0
0 0 0

2891.89 -1502.41 0
-1502.41 2409.85 0
0 0 0

4032.79 1380.67 0
1380.67 8705.71 0
0 0 0

4524.5 -882.214 0
-882.214 -330.861 0
0 0 0

5532.68 6259.5 0
6259.5 5742.64 0
0 0 0

3877.69 961.582 0
961.582 7452.13 0
0 0 0

291.061 -1888.94 0
-1888.94 4309.7 0
0 0 0

-2124.58 6143.18 0
6143.18 5712.85 0
0 0 0

4952.14 6947.02 0
6947.02 -1272.93 0
0 0 0

-3869.81 1769.12 0
1769.12 -2878.07 0
0 0 0

507.08 -1225.92 0
-1225.92 -3902.89 0
0 0 0

2806.23 5632.15 0
5632.15 4360.63 0
0 0 0

3729.65 4691.33 0
4691.33 53.938 0
0 0 0

5894.06 2723.23 0
2723.23 10225.3 0
0 0 0

6697.83 1388.41 0
1388.41 -4487.31 0
0 0 0

-170.984 -325.407 0
-325.407 7529.37 0
0 0 0

-852.033 4863.57 0
4863.57 -3895.36 0
0 0 0

-2872.61 -4019.57 0
-4019.57 3256.26 0
0 0 0

2519.72 2307.74 0
2307.74 -569.889 0
0 0 0

5562.29 -3051 0
-3051 3284.74 0
0 0 0

5214.63 839.122 0
839.122 348.253 0
0 0 0

58.1186 -2536.68 0
-2536.68 -744.867 0
0 0 0

5920.81 -3589.63 0
-3589.63 3716.19 0
0 0 0

6200.26 17.7393 0
17.7393 1647.7 0
0 0 0

4756.14 -135.815 0
-135.815 829.956 0
0 0 0

2476.77 -762.588 0
-762.588 3768.04 0
0 0 0

931.508 -3209.41 0
-3209.41 -5080.98 0
0 0 0

387.309 6166.36 0
6166.36 -2012.63 0
0 0 0

-2344.3 -154.013 0
-154.013 -1187.8 0
0 0 0

TENSORS velocity_gradient double
3.75107 2.90747 0
-4.72893 -2.9165 0
0 0 0

4.87389 3.34972 0
-8.39179 -2.11748 0
0 0 0

4.072 6.91318 0
-5.08966 -2.77303 0
0 0 0

4.59587 6.38005 0
-8.37476 -2.95587 0
0 0 0

4.68959 4.49753 0
-8.58472 -0.915961 0
0 0 0

4.32567 4.15103 0
-8.78795 -1.3361 0
0 0 0

4.67254 5.95201 0
-8.19151 -3.9789 0
0 0 0

5.55939 5.43288 0
-8.08293 -4.75414 0
0 0 0

4.54348 2.53471 0
-8.64038 -3.7539 0
0 0 0

5.23905 4.09736 0
-2.0804 -3.97217 0
0 0 0

5.65739 4.65265 0
-8.04255 -5.07563 0
0 0 0

3.8361 4.46933 0
-4.68662 -4.6128 0
0 0 0

4.96812 6.29819 0
-2.65771 -1.33495 0
0 0 0

1.61405 7.14099 0
-7.57661 -1.04727 0
0 0 0

3.48864 5.91202 0
-5.30937 -2.02708 0
0 0 0

1.43881 7.09804 0
-5.5759 -0.557006 0
0 0 0

4.64771 7.02142 0
-5.22918 -2.79926 0
0 0 0

4.94665 6.46078 0
-6.81776 -2.86479 0
0 0 0

4.48176 -1.33046 0
-5.60937 -2.02782 0
0 0 0

4.04081 0.416267 0
-5.84929 -1.07743 0
0 0 0

5.092 6.04503 0
-7.18899 -3.75657 0
0 0 0

5.84427 4.80913 0
-7.51436 -4.83654 0
0 0 0

4.56791 1.49262 0
-5.18703 -2.55812 0
0 0 0

4.49838 2.37626 0
-5.0355 -4.97639 0
0 0 0

6.14062 4.57056 0
-7.739 -5.34819 0
0 0 0

4.49405 5.41254 0
-7.40983 -5.3724 0
0 0 0

4.76508 3.79834 0
-7.62312 -5.60865 0
0 0 0

4.45093 5.43879 0
-7.60641 -5.69592 0
0 0 0

2.90657 5.26305 0
-7.50675 -3.71143 0
0 0 0

0.852179 5.25172 0
-4.90331 -2.48092 0
0 0 0

3.54583 5.41851 0
-9.51529 -4.19986 0
0 0 0

3.70069 4.77075 0
-10.0018 -2.16464 0
0 0 0

2.67919 -1.71243 0
-6.59014 -2.23564 0
0 0 0

2.29541 0.0265299 0
-6.79895 -1.28949 0
0 0 0

-1.69991 4.01018 0
-8.98229 -2.2139 0
0 0 0

2.12772 1.98253 0
-8.64846 0.601186 0
0 0 0

3.71421 1.29889 0
-2.81048 -1.99735 0
0 0 0

3.64275 1.91212 0
-2.63049 -2.5451 0
0 0 0

3.36819 1.03128 0
-2.04261 2.59242 0
0 0 0

3.3281 1.22947 0
-1.98882 2.32649 0
0 0 0

3.1585 2.38813 0
-7.11054 -1.66257 0
0 0 0

2.93077 2.48364 0
-6.83548 -2.03846 0
0 0 0

2.3207 1.58204 0
-4.56648 1.31484 0
0 0 0

2.20024 2.31439 0
-4.11845 -1.40896 0
0 0 0

3.85805 3.05902 0
-10.9723 -3.30959 0
0 0 0

3.7754 3.46108 0
-10.9991 -3.17914 0
0 0 0

3.44885 2.96347 0
-11.1051 -3.34059 0
0 0 0

3.37701 3.36649 0
-11.1284 -3.20983 0
0 0 0

-1.20477 5.66185 0
-11.2926 -2.36838 0
0 0 0

3.37014 2.27912 0
-11.1955 -0.00683986 0
0 0 0

8.66627 12.9506 0
-11.05 -8.75255 0
0 0 0

6.49316 6.6899 0
-13.1868 -7.78654 0
0 0 0

3.39457 1.14512 0
-6.10921 2.33721 0
0 0 0

3.38521 -0.191618 0
-2.09173 0.561388 0
0 0 0

7.25706 1.2357 0
-12.3621 -6.72634 0
0 0 0

5.39444 -2.14987 0
-5.01801 -3.40709 0
0 0 0

2.39701 -2.63996 0
-2.29477 0.893749 0
0 0 0

0.979685 -2.4447 0
-1.99399 0.91273 0
0 0 0

4.33216 -4.48498 0
-4.88318 0.195982 0
0 0 0

-1.60696 -2.82101 0
-1.97465 0.915545 0
0 0 0

1.64082 0.24574 0
-7.33379 0.511096 0
0 0 0

1.96317 2.85374 0
-10.0415 -1.7407 0
0 0 0

-1.43808 -0.127187 0
-4.0505 0.686091 0
0 0 0

-0.52793 2.46019 0
-7.68388 -1.36824 0
0 0 0

SCALARS active double 1
LOOKUP_TABLE default
1
1
1
1
1
1
1
1
1
1
1
1
1
1
1
1
1
1
1
1
1
1
1
1
1
1
1
1
1
1
1
1
1
1
1
1
1
1
1
1
1
1
1
1
1
1
1
1
1
1
1
1
1
1
1
1
1
1
1
1
1
1
1
1
SCALARS extent double 1
LOOKUP_TABLE default
0.0125
0.0125
0.0125
0.0125
0.0125
0.0125
0.0125
0.0125
0.0125
0.0125
0.0125
0.0125
0.0125
0.0125
0.0125
0.0125
0.0125
0.0125
0.0125
0.0125
0.0125
0.0125
0.0125
0.0125
0.0125
0.0125
0.0125
0.0125
0.0125
0.0125
0.0125
0.0125
0.0125
0.0125
0.0125
0.0125
0.0125
0.0125
0.0125
0.0125
0.0125
0.0125
0.0125
0.0125
0.0125
0.0125
0.0125
0.0125
0.0125
0.0125
0.0125
0.0125
0.0125
0.0125
0.0125
0.0125
0.0125
0.0125
0.0125
0.0125
0.0125
0.0125
0.0125
0.0125
SCALARS pressure double 1
LOOKUP_TABLE default
-794.321
-843.382
2163.71
-731.697
1298.91
-1616.35
397.246
-475.536
-2040.02
-3206.21
-4449.94
-165.025
-2736.77
-781.541
-314.914
-697.294
1174.6
-4166.91
-4156.17
-1186.08
326.298
4179
-7110.98
361.818
2131.84
2212.79
-6191.39
-4617.9
2878.45
-833.696
-2165.79
-3542.1
6988.24
3028.16
1803.94
-5089.28
-2650.87
-6369.25
-2096.82
-5637.66
-5664.91
-2300.38
-1794.14
-1839.6
3373.94
1697.91
-3583.43
-1891.79
-8059.7
-1105.26
-3679.19
2373.7
-191.824
-974.915
-4423.51
-2781.44
343.374
-4818.5
-3923.98
-2793.05
-3122.4
2074.74
812.66
1766.05
SCALARS density double 1
LOOKUP_TABLE default
991.773
991.267
1022.76
992.419
1013.6
983.33
1004.14
995.067
979.007
967.205
954.775
998.285
971.939
991.905
996.73
992.774
1012.29
957.59
957.697
987.74
1003.4
1044.42
928.714
1003.77
1022.42
1023.28
937.639
953.109
1030.39
991.367
977.728
963.832
1075.38
1031.99
1018.94
948.448
972.807
935.906
978.429
943.054
942.787
976.36
981.514
981.05
1035.71
1017.82
963.418
980.518
919.596
988.571
962.459
1024.99
998.007
989.912
955.038
971.487
1003.58
951.122
960.012
971.37
968.049
1021.81
1008.49
1018.54
